LAMMPS (22 Jul 2025)
OMP_NUM_THREADS environment is not set. Defaulting to 1 thread.
  using 1 OpenMP thread(s) per MPI task
Loaded 1 plugins from C:\Users\Home\AppData\Local\LAMMPS 64-bit 22Jul2025 with GUI\plugins
# Compute elastic constant tensor for a crystal
#
# Written by Aidan Thompson (Sandia, athomps@sandia.gov)
#
#  This script uses the following three include files.
#
#   init.mod      (must be modified for different crystal structures)
# 	       	  Define units, deformation parameters and initial
#		  configuration of the atoms and simulation cell.
#
#
#   potential.mod    (must be modified for different pair styles)
# 		     Define pair style and other attributes
#		     not stored in restart file
#
#
#   displace.mod    (displace.mod should not need to be modified)
# 		    Perform positive and negative box displacements
# 		    in direction ${dir} and size ${up}.
# 		    It uses the resultant changes
#		    in stress to compute one
# 		    row of the elastic stiffness tensor
#
#		    Inputs variables:
#		    	   dir = the Voigt deformation component
#		    		    (1,2,3,4,5,6)
#		    Global constants:
#       	    	   up = the deformation magnitude (strain units)
#       		   cfac = conversion from LAMMPS pressure units to
#               	   output units for elastic constants
#
#
#  To run this on a different system, it should only be necessary to
#  modify the files init.mod and potential.mod. In order to calculate
#  the elastic constants correctly, care must be taken to specify
#  the correct units in init.mod (units, cfac and cunits). It is also
#  important to verify that the minimization of energy w.r.t atom
#  positions in the deformed cell is fully converged.
#  One indication of this is that the elastic constants are insensitive
#  to the choice of the variable ${up} in init.mod. Another is to check
#  the final max and two-norm forces reported in the log file. If you know
#  that minimization is not required, you can set maxiter = 0.0 in
#  init.mod.
#

include init.mod
# NOTE: This script can be modified for different atomic structures,
# units, etc. See in.elastic for more info.
#

# Define the finite deformation size. Try several values of this
# variable to verify that results do not depend on it.
variable up equal 1.0e-6

# Define the amount of random jiggle for atoms
# This prevents atoms from staying on saddle points
variable atomjiggle equal 1.0e-5

# Uncomment one of these blocks, depending on what units
# you are using in LAMMPS and for output

# metal units, elastic constants in eV/A^3
#units		metal
#variable cfac equal 6.2414e-7
#variable cunits string eV/A^3

# metal units, elastic constants in GPa
units		metal
variable cfac equal 1.0e-4
variable cunits string GPa

# real units, elastic constants in GPa
#units		real
#variable cfac equal 1.01325e-4
#variable cunits string GPa

# Define minimization parameters
variable etol equal 0.0
variable ftol equal 1.0e-10
variable maxiter equal 100
variable maxeval equal 1000
variable dmax equal 1.0e-2

# generate the box and atom positions using a diamond lattice
variable a equal 5.43

units metal
boundary p p p
atom_style atomic

variable a equal 4.91
variable c equal 5.43
variable a1 equal 0.5*${a}
variable a1 equal 0.5*4.91
variable a2 equal sqrt(3.0)/2.0*${a}
variable a2 equal sqrt(3.0)/2.0*4.91
variable a3 equal ${c}
variable a3 equal 5.43

# Создание примитивной ячейки кварца
lattice custom 1.0     a1    ${a1} -${a2} 0         a2    ${a1} ${a2}  0         a3    0     0      ${c}        basis 0.531 0      0.333     basis 0     0.531  0.666     basis 0.469 0.469  0         basis 0.269 0.413  0.785     basis 0.587 0.856  0.115     basis 0.144 0.731  0.445     basis 0.413 0.269  0.225     basis 0.856 0.587  0.875     basis 0.731 0.144  0.545
lattice custom 1.0     a1    2.455 -${a2} 0         a2    ${a1} ${a2}  0         a3    0     0      ${c}        basis 0.531 0      0.333     basis 0     0.531  0.666     basis 0.469 0.469  0         basis 0.269 0.413  0.785     basis 0.587 0.856  0.115     basis 0.144 0.731  0.445     basis 0.413 0.269  0.225     basis 0.856 0.587  0.875     basis 0.731 0.144  0.545
lattice custom 1.0     a1    2.455 -4.25218473258159 0         a2    ${a1} ${a2}  0         a3    0     0      ${c}        basis 0.531 0      0.333     basis 0     0.531  0.666     basis 0.469 0.469  0         basis 0.269 0.413  0.785     basis 0.587 0.856  0.115     basis 0.144 0.731  0.445     basis 0.413 0.269  0.225     basis 0.856 0.587  0.875     basis 0.731 0.144  0.545
lattice custom 1.0     a1    2.455 -4.25218473258159 0         a2    2.455 ${a2}  0         a3    0     0      ${c}        basis 0.531 0      0.333     basis 0     0.531  0.666     basis 0.469 0.469  0         basis 0.269 0.413  0.785     basis 0.587 0.856  0.115     basis 0.144 0.731  0.445     basis 0.413 0.269  0.225     basis 0.856 0.587  0.875     basis 0.731 0.144  0.545
lattice custom 1.0     a1    2.455 -4.25218473258159 0         a2    2.455 4.25218473258159  0         a3    0     0      ${c}        basis 0.531 0      0.333     basis 0     0.531  0.666     basis 0.469 0.469  0         basis 0.269 0.413  0.785     basis 0.587 0.856  0.115     basis 0.144 0.731  0.445     basis 0.413 0.269  0.225     basis 0.856 0.587  0.875     basis 0.731 0.144  0.545
lattice custom 1.0     a1    2.455 -4.25218473258159 0         a2    2.455 4.25218473258159  0         a3    0     0      5.43        basis 0.531 0      0.333     basis 0     0.531  0.666     basis 0.469 0.469  0         basis 0.269 0.413  0.785     basis 0.587 0.856  0.115     basis 0.144 0.731  0.445     basis 0.413 0.269  0.225     basis 0.856 0.587  0.875     basis 0.731 0.144  0.545
Lattice spacing in x,y,z = 4.91 8.5043695 5.43

region		box prism 0 2.0 0 3.0 0 4.0 0.0 0.0 0.0
create_box	2 box
Created triclinic box = (0 0 0) to (9.82 25.513108 21.72) with tilt (0 0 0)
  1 by 1 by 1 MPI processor grid
create_atoms 1 box basis 1 1 basis 2 1 basis 3 1     basis 4 2 basis 5 2 basis 6 2 basis 7 2 basis 8 2 basis 9 2
Created 432 atoms
  using lattice units in triclinic box = (0 0 0) to (9.82 25.513108 21.72) with tilt (0 0 0)
  create_atoms CPU = 0.001 seconds
write_dump all custom quartz.lammpstrj id type x y z
WARNING: Calling write_dump before a full system init (src/write_dump.cpp:89)
# Массы атомов
mass 1 28.0855  # Кремний
mass 2 15.999   # Кислород

include potential.mod
# NOTE: This script can be modified for different pair styles
# See in.elastic for more info.

# Потенциал Tersoff для SiO2
pair_style tersoff
pair_coeff * * SiO.tersoff Si O
Reading tersoff potential file SiO.tersoff with DATE: 2010-08-16

# Setup neighbor style
neighbor 1.0 nsq
neigh_modify once no every 1 delay 0 check yes

# Setup minimization style
min_style	     cg
min_modify	     dmax ${dmax} line quadratic
min_modify	     dmax 0.01 line quadratic

# Setup output
thermo		1
thermo_style custom step temp pe press pxx pyy pzz pxy pxz pyz lx ly lz vol
thermo_modify norm no

# Compute initial state
fix 3 all box/relax  aniso 0.0
minimize ${etol} ${ftol} ${maxiter} ${maxeval}
minimize 0 ${ftol} ${maxiter} ${maxeval}
minimize 0 1e-10 ${maxiter} ${maxeval}
minimize 0 1e-10 100 ${maxeval}
minimize 0 1e-10 100 1000
Neighbor list info ...
  update: every = 1 steps, delay = 0 steps, check = yes
  max neighbors/atom: 2000, page size: 100000
  master list distance cutoff = 3.8
  ghost atom cutoff = 3.8
  1 neighbor lists, perpetual/occasional/extra = 1 0 0
  (1) pair tersoff, perpetual
      attributes: full, newton on
      pair build: full/nsq
      stencil: none
      bin: none
WARNING: Energy due to 3 extra global DOFs will be included in minimizer energies
 (src/min.cpp:222)
Per MPI rank memory allocation (min/avg/max) = 4.19 | 4.19 | 4.19 Mbytes
   Step          Temp          PotEng         Press           Pxx            Pyy            Pzz            Pxy            Pxz            Pyz             Lx             Ly             Lz           Volume    
         0   0             -2532.079       219978.06      5942.3244      23918.533      630073.33     -20991.876      40033.725      23331.691      9.82           25.513108      21.72          5441.7011    
         1   0             -2532.2967      219650.51      5755.3611      23719.048      629477.13     -20980.064      40018.249      23319.471      9.8200093      25.513205      21.722172      5442.2711    
         2   0             -2532.5142      219323.21      5568.5913      23519.763      628881.29     -20968.257      40002.78       23307.257      9.8200182      25.513301      21.724344      5442.8407    
         3   0             -2532.7316      218996.17      5382.0151      23320.676      628285.81     -20956.457      39987.318      23295.048      9.8200269      25.513397      21.726516      5443.4101    
         4   0             -2532.9487      218669.37      5195.6322      23121.788      627690.68     -20944.663      39971.864      23282.846      9.8200354      25.513492      21.728688      5443.9791    
         5   0             -2533.1656      218342.82      5009.4426      22923.099      627095.91     -20932.874      39956.417      23270.649      9.8200435      25.513586      21.73086       5444.5479    
         6   0             -2533.3823      218016.51      4823.4462      22724.608      626501.49     -20921.092      39940.977      23258.458      9.8200513      25.513679      21.733032      5445.1163    
         7   0             -2533.5988      217690.46      4637.6429      22526.316      625907.43     -20909.316      39925.545      23246.272      9.8200589      25.513771      21.735204      5445.6845    
         8   0             -2533.8151      217364.66      4452.0327      22328.222      625313.72     -20897.545      39910.119      23234.093      9.8200662      25.513863      21.737376      5446.2523    
         9   0             -2534.0312      217039.11      4266.6153      22130.326      624720.37     -20885.78       39894.702      23221.919      9.8200732      25.513955      21.739548      5446.8198    
        10   0             -2534.2471      216713.8       4081.3908      21932.629      624127.38     -20874.022      39879.291      23209.752      9.8200799      25.514045      21.74172       5447.3871    
        11   0             -2534.4627      216388.74      3896.359       21735.13       623534.74     -20862.269      39863.888      23197.59       9.8200863      25.514135      21.743892      5447.954     
        12   0             -2534.6782      216063.93      3711.5199      21537.829      622942.46     -20850.522      39848.492      23185.433      9.8200925      25.514224      21.746064      5448.5206    
        13   0             -2534.8935      215739.37      3526.8733      21340.726      622350.53     -20838.782      39833.103      23173.283      9.8200983      25.514312      21.748236      5449.0869    
        14   0             -2535.1085      215415.06      3342.4191      21143.82       621758.95     -20827.047      39817.721      23161.138      9.8201039      25.5144        21.750408      5449.6529    
        15   0             -2535.3234      215091         3158.1574      20947.112      621167.73     -20815.318      39802.347      23149          9.8201092      25.514487      21.75258       5450.2186    
        16   0             -2535.538       214767.18      2974.0878      20750.602      620576.86     -20803.595      39786.98       23136.867      9.8201142      25.514573      21.754752      5450.784     
        17   0             -2535.7525      214443.62      2790.2105      20554.29       619986.35     -20791.878      39771.621      23124.739      9.8201189      25.514658      21.756924      5451.3491    
        18   0             -2535.9667      214120.3       2606.5253      20358.175      619396.19     -20780.166      39756.269      23112.618      9.8201233      25.514743      21.759096      5451.9139    
        19   0             -2536.1808      213797.23      2423.032       20162.257      618806.39     -20768.461      39740.923      23100.502      9.8201275      25.514827      21.761268      5452.4783    
        20   0             -2536.3946      213474.4       2239.7307      19966.537      618216.94     -20756.762      39725.586      23088.392      9.8201313      25.51491       21.76344       5453.0425    
        21   0             -2536.6082      213151.82      2056.6212      19771.014      617627.84     -20745.068      39710.255      23076.288      9.8201349      25.514993      21.765612      5453.6063    
        22   0             -2536.8216      212829.49      1873.7034      19575.687      617039.09     -20733.381      39694.932      23064.19       9.8201382      25.515075      21.767784      5454.1698    
        23   0             -2537.0349      212507.41      1690.9772      19380.558      616450.7      -20721.699      39679.616      23052.098      9.8201411      25.515156      21.769956      5454.7331    
        24   0             -2537.2479      212185.58      1508.4426      19185.626      615862.67     -20710.023      39664.308      23040.011      9.8201438      25.515236      21.772128      5455.296     
        25   0             -2537.4607      211863.99      1326.0994      18990.89       615274.98     -20698.353      39649.006      23027.93       9.8201462      25.515316      21.7743        5455.8586    
        26   0             -2537.6733      211542.65      1143.9476      18796.351      614687.65     -20686.689      39633.712      23015.855      9.8201484      25.515395      21.776472      5456.4209    
        27   0             -2537.8857      211221.56      961.98709      18602.009      614100.67     -20675.031      39618.426      23003.785      9.8201502      25.515473      21.778644      5456.9828    
        28   0             -2538.0979      210900.71      780.21773      18407.863      613514.05     -20663.379      39603.146      22991.722      9.8201517      25.51555       21.780816      5457.5445    
        29   0             -2538.3099      210580.11      598.63946      18213.914      612927.77     -20651.732      39587.874      22979.664      9.820153       25.515627      21.782988      5458.1058    
        30   0             -2538.5217      210259.75      417.25219      18020.161      612341.85     -20640.092      39572.609      22967.612      9.820154       25.515703      21.78516       5458.6669    
        31   0             -2538.7333      209939.65      236.05584      17826.604      611756.28     -20628.457      39557.352      22955.565      9.8201546      25.515778      21.787332      5459.2276    
        32   0             -2538.9447      209619.79      55.050299      17633.243      611171.06     -20616.828      39542.101      22943.525      9.820155       25.515853      21.789504      5459.788     
        33   0             -2539.1559      209300.17     -125.76451      17440.079      610586.2      -20605.205      39526.858      22931.49       9.8201551      25.515927      21.791676      5460.3481    
        34   0             -2539.3669      208980.8      -306.38867      17247.11       610001.68     -20593.588      39511.622      22919.461      9.8201549      25.516         21.793848      5460.9078    
        35   0             -2539.5776      208661.68     -486.82227      17054.337      609417.52     -20581.977      39496.394      22907.438      9.8201544      25.516072      21.79602       5461.4673    
        36   0             -2539.7882      208342.8      -667.06542      16861.76       608833.71     -20570.372      39481.173      22895.42       9.8201536      25.516144      21.798192      5462.0264    
        37   0             -2539.9986      208024.17     -847.11818      16669.379      608250.25     -20558.772      39465.959      22883.409      9.8201525      25.516215      21.800364      5462.5853    
        38   0             -2540.2088      207705.79     -1026.9807      16477.193      607667.15     -20547.179      39450.752      22871.403      9.8201512      25.516285      21.802536      5463.1438    
        39   0             -2540.4188      207387.65     -1206.6529      16285.203      607084.39     -20535.591      39435.553      22859.403      9.8201495      25.516354      21.804708      5463.702     
        40   0             -2540.6286      207069.75     -1386.1351      16093.408      606501.98     -20524.009      39420.361      22847.408      9.8201475      25.516423      21.80688       5464.2598    
        41   0             -2540.8381      206752.1      -1565.4272      15901.808      605919.93     -20512.433      39405.176      22835.419      9.8201453      25.516491      21.809052      5464.8174    
        42   0             -2541.0475      206434.7      -1744.5295      15710.404      605338.22     -20500.862      39389.999      22823.436      9.8201427      25.516558      21.811224      5465.3746    
        43   0             -2541.2567      206117.54     -1923.4418      15519.194      604756.87     -20489.298      39374.829      22811.459      9.8201399      25.516625      21.813396      5465.9315    
        44   0             -2541.4657      205800.63     -2102.1644      15328.18       604175.86     -20477.739      39359.666      22799.488      9.8201368      25.516691      21.815568      5466.4881    
        45   0             -2541.6745      205483.96     -2280.6973      15137.361      603595.21     -20466.186      39344.51       22787.522      9.8201333      25.516756      21.81774       5467.0444    
        46   0             -2541.883       205167.53     -2459.0407      14946.736      603014.91     -20454.639      39329.362      22775.562      9.8201296      25.51682       21.819912      5467.6003    
        47   0             -2542.0914      204851.35     -2637.1945      14756.307      602434.95     -20443.098      39314.221      22763.608      9.8201256      25.516883      21.822084      5468.156     
        48   0             -2542.2996      204535.42     -2815.159       14566.072      601855.35     -20431.562      39299.087      22751.659      9.8201213      25.516946      21.824256      5468.7113    
        49   0             -2542.5076      204219.73     -2992.9341      14376.031      601276.09     -20420.033      39283.96       22739.717      9.8201166      25.517008      21.826428      5469.2663    
        50   0             -2542.7154      203904.28     -3170.5199      14186.185      600697.19     -20408.509      39268.841      22727.78       9.8201117      25.517069      21.8286        5469.8209    
        51   0             -2542.923       203589.08     -3347.9167      13996.534      600118.63     -20396.991      39253.729      22715.848      9.8201065      25.51713       21.830772      5470.3753    
        52   0             -2543.1304      203274.13     -3525.1243      13807.076      599540.43     -20385.479      39238.625      22703.923      9.820101       25.51719       21.832944      5470.9293    
        53   0             -2543.3375      202959.41     -3702.143       13617.813      598962.57     -20373.972      39223.527      22692.003      9.8200952      25.517249      21.835116      5471.483     
        54   0             -2543.5445      202644.94     -3878.9728      13428.744      598385.06     -20362.472      39208.437      22680.089      9.8200891      25.517307      21.837288      5472.0363    
        55   0             -2543.7513      202330.72     -4055.6137      13239.869      597807.9      -20350.977      39193.354      22668.181      9.8200827      25.517365      21.83946       5472.5894    
        56   0             -2543.9579      202016.74     -4232.066       13051.188      597231.09     -20339.488      39178.279      22656.278      9.820076       25.517422      21.841632      5473.1421    
        57   0             -2544.1643      201703        -4408.3296      12862.701      596654.63     -20328.004      39163.211      22644.381      9.820069       25.517478      21.843804      5473.6945    
        58   0             -2544.3705      201389.51     -4584.4047      12674.408      596078.51     -20316.527      39148.15       22632.49       9.8200617      25.517533      21.845976      5474.2465    
        59   0             -2544.5765      201076.26     -4760.2913      12486.308      595502.75     -20305.055      39133.096      22620.605      9.8200541      25.517587      21.848148      5474.7983    
        60   0             -2544.7823      200763.25     -4935.9895      12298.402      594927.33     -20293.589      39118.05       22608.725      9.8200462      25.517641      21.85032       5475.3497    
        61   0             -2544.9879      200450.48     -5111.4994      12110.69       594352.26     -20282.129      39103.011      22596.851      9.820038       25.517694      21.852492      5475.9008    
        62   0             -2545.1933      200137.96     -5286.8211      11923.171      593777.54     -20270.675      39087.979      22584.983      9.8200295      25.517747      21.854664      5476.4515    
        63   0             -2545.3986      199825.69     -5461.9547      11735.845      593203.17     -20259.226      39072.954      22573.12       9.8200207      25.517798      21.856836      5477.0019    
        64   0             -2545.6036      199513.65     -5636.9002      11548.713      592629.14     -20247.783      39057.937      22561.263      9.8200116      25.517849      21.859008      5477.552     
        65   0             -2545.8084      199201.86     -5811.6578      11361.773      592055.46     -20236.346      39042.927      22549.412      9.8200022      25.517899      21.86118       5478.1018    
        66   0             -2546.013       198890.31     -5986.2275      11175.027      591482.13     -20224.914      39027.924      22537.567      9.8199925      25.517948      21.863352      5478.6512    
        67   0             -2546.2175      198579        -6160.6095      10988.474      590909.14     -20213.489      39012.929      22525.727      9.8199825      25.517997      21.865524      5479.2004    
        68   0             -2546.4217      198267.94     -6334.8037      10802.113      590336.51     -20202.069      38997.941      22513.893      9.8199722      25.518044      21.867696      5479.7491    
        69   0             -2546.6257      197957.12     -6508.8103      10615.946      589764.21     -20190.654      38982.96       22502.065      9.8199616      25.518091      21.869868      5480.2976    
        70   0             -2546.8296      197646.54     -6682.6293      10429.971      589192.27     -20179.246      38967.986      22490.242      9.8199507      25.518138      21.87204       5480.8457    
        71   0             -2547.0332      197336.2      -6856.2609      10244.189      588620.67     -20167.843      38953.02       22478.426      9.8199395      25.518183      21.874212      5481.3935    
        72   0             -2547.2367      197026.1      -7029.7051      10058.599      588049.42     -20156.446      38938.061      22466.614      9.819928       25.518228      21.876384      5481.9409    
        73   0             -2547.44        196716.25     -7202.9621      9873.2017      587478.52     -20145.055      38923.109      22454.809      9.8199161      25.518272      21.878556      5482.488     
        74   0             -2547.643       196406.64     -7376.0318      9687.9969      586907.96     -20133.669      38908.165      22443.009      9.819904       25.518315      21.880728      5483.0348    
        75   0             -2547.8459      196097.27     -7548.9144      9502.9844      586337.74     -20122.289      38893.228      22431.215      9.8198916      25.518357      21.8829        5483.5813    
        76   0             -2548.0486      195788.14     -7721.6099      9318.164       585767.88     -20110.915      38878.298      22419.427      9.8198788      25.518399      21.885072      5484.1274    
        77   0             -2548.2511      195479.26     -7894.1185      9133.5358      585198.36     -20099.547      38863.375      22407.644      9.8198658      25.51844       21.887244      5484.6732    
        78   0             -2548.4533      195170.61     -8066.4403      8949.0996      584629.18     -20088.184      38848.46       22395.867      9.8198524      25.51848       21.889416      5485.2186    
        79   0             -2548.6554      194862.21     -8238.5752      8764.8554      584060.35     -20076.827      38833.552      22384.096      9.8198388      25.518519      21.891588      5485.7637    
        80   0             -2548.8573      194554.05     -8410.5234      8580.803       583491.87     -20065.475      38818.651      22372.331      9.8198248      25.518558      21.89376       5486.3085    
        81   0             -2549.0591      194246.13     -8582.285       8396.9424      582923.73     -20054.13       38803.757      22360.571      9.8198106      25.518596      21.895932      5486.8529    
        82   0             -2549.2606      193938.45     -8753.86        8213.2735      582355.93     -20042.79       38788.871      22348.816      9.819796       25.518633      21.898104      5487.397     
        83   0             -2549.4619      193631.01     -8925.2485      8029.7962      581788.48     -20031.456      38773.992      22337.068      9.8197811      25.518669      21.900276      5487.9408    
        84   0             -2549.663       193323.81     -9096.4507      7846.5104      581221.38     -20020.127      38759.121      22325.325      9.8197659      25.518705      21.902448      5488.4842    
        85   0             -2549.864       193016.86     -9267.4665      7663.4161      580654.62     -20008.804      38744.256      22313.588      9.8197504      25.518739      21.90462       5489.0273    
        86   0             -2550.0647      192710.14     -9438.2962      7480.5131      580088.2      -19997.487      38729.399      22301.857      9.8197346      25.518773      21.906792      5489.57      
        87   0             -2550.2653      192403.67     -9608.9397      7297.8014      579522.13     -19986.175      38714.549      22290.131      9.8197185      25.518806      21.908964      5490.1124    
        88   0             -2550.4656      192097.43     -9779.3971      7115.2809      578956.41     -19974.869      38699.707      22278.411      9.8197021      25.518839      21.911136      5490.6545    
        89   0             -2550.6658      191791.44     -9949.6685      6932.9515      578391.02     -19963.569      38684.872      22266.696      9.8196853      25.51887       21.913308      5491.1962    
        90   0             -2550.8658      191485.68     -10119.754      6750.8131      577825.99     -19952.275      38670.044      22254.988      9.8196683      25.518901      21.91548       5491.7376    
        91   0             -2551.0656      191180.17     -10289.654      6568.8656      577261.29     -19940.986      38655.223      22243.284      9.8196509      25.518931      21.917652      5492.2786    
        92   0             -2551.2652      190874.89     -10459.368      6387.109       576696.94     -19929.702      38640.41       22231.587      9.8196333      25.518961      21.919824      5492.8193    
        93   0             -2551.4646      190569.86     -10628.896      6205.5432      576132.93     -19918.425      38625.604      22219.895      9.8196153      25.518989      21.921996      5493.3597    
        94   0             -2551.6638      190265.07     -10798.239      6024.1681      575569.27     -19907.153      38610.805      22208.209      9.819597       25.519017      21.924168      5493.8997    
        95   0             -2551.8628      189960.51     -10967.396      5842.9836      575005.95     -19895.887      38596.013      22196.529      9.8195784      25.519044      21.92634       5494.4394    
        96   0             -2552.0616      189656.2      -11136.368      5661.9895      574442.97     -19884.626      38581.229      22184.854      9.8195595      25.51907       21.928512      5494.9787    
        97   0             -2552.2603      189352.12     -11305.154      5481.186       573880.34     -19873.371      38566.452      22173.185      9.8195403      25.519095      21.930684      5495.5177    
        98   0             -2552.4587      189048.29     -11473.755      5300.5728      573318.05     -19862.122      38551.682      22161.522      9.8195208      25.51912       21.932856      5496.0563    
        99   0             -2552.657       188744.69     -11642.171      5120.1498      572756.1      -19850.878      38536.92       22149.864      9.8195009      25.519144      21.935028      5496.5946    
       100   0             -2552.8551      188441.34     -11810.402      4939.9171      572194.49     -19839.64       38522.165      22138.212      9.8194807      25.519167      21.9372        5497.1326    
Loop time of 0.102077 on 1 procs for 100 steps with 432 atoms

91.8% CPU use with 1 MPI tasks x 1 OpenMP threads

Minimization stats:
  Stopping criterion = max iterations
  Energy initial, next-to-last, final = 
     -2532.07895696323  -2552.65698233881  -2552.85505451306
  Force two-norm initial, final = 2159.1518 1961.7027
  Force max component initial, final = 2140.0081 1943.7847
  Final line search alpha, max atom move = 5.1395524e-08 9.9901832e-05
  Iterations, force evaluations = 100 100

MPI task timing breakdown:
Section |  min time  |  avg time  |  max time  |%varavg| %total
---------------------------------------------------------------
Pair    | 0.078787   | 0.078787   | 0.078787   |   0.0 | 77.18
Neigh   | 0          | 0          | 0          |   0.0 |  0.00
Comm    | 0.000419   | 0.000419   | 0.000419   |   0.0 |  0.41
Output  | 0.017877   | 0.017877   | 0.017877   |   0.0 | 17.51
Modify  | 0          | 0          | 0          |   0.0 |  0.00
Other   |            | 0.004994   |            |       |  4.89

Nlocal:            432 ave         432 max         432 min
Histogram: 1 0 0 0 0 0 0 0 0 0
Nghost:            973 ave         973 max         973 min
Histogram: 1 0 0 0 0 0 0 0 0 0
Neighs:              0 ave           0 max           0 min
Histogram: 1 0 0 0 0 0 0 0 0 0
FullNghs:         6720 ave        6720 max        6720 min
Histogram: 1 0 0 0 0 0 0 0 0 0

Total # of neighbors = 6720
Ave neighs/atom = 15.555556
Neighbor list builds = 0
Dangerous builds = 0

variable tmp equal pxx
variable pxx0 equal ${tmp}
variable pxx0 equal -11810.4019057323
variable tmp equal pyy
variable pyy0 equal ${tmp}
variable pyy0 equal 4939.917105692
variable tmp equal pzz
variable pzz0 equal ${tmp}
variable pzz0 equal 572194.493000572
variable tmp equal pyz
variable pyz0 equal ${tmp}
variable pyz0 equal 22138.2120342392
variable tmp equal pxz
variable pxz0 equal ${tmp}
variable pxz0 equal 38522.1645406246
variable tmp equal pxy
variable pxy0 equal ${tmp}
variable pxy0 equal -19839.6396988141

variable tmp equal lx
variable lx0 equal ${tmp}
variable lx0 equal 9.81948074968424
variable tmp equal ly
variable ly0 equal ${tmp}
variable ly0 equal 25.5191668558067
variable tmp equal lz
variable lz0 equal ${tmp}
variable lz0 equal 21.9372000000001

# These formulas define the derivatives w.r.t. strain components
# Constants uses $, variables use v_
variable d1 equal -(v_pxx1-${pxx0})/(v_delta/v_len0)*${cfac}
variable d1 equal -(v_pxx1--11810.4019057323)/(v_delta/v_len0)*${cfac}
variable d1 equal -(v_pxx1--11810.4019057323)/(v_delta/v_len0)*0.0001
variable d2 equal -(v_pyy1-${pyy0})/(v_delta/v_len0)*${cfac}
variable d2 equal -(v_pyy1-4939.917105692)/(v_delta/v_len0)*${cfac}
variable d2 equal -(v_pyy1-4939.917105692)/(v_delta/v_len0)*0.0001
variable d3 equal -(v_pzz1-${pzz0})/(v_delta/v_len0)*${cfac}
variable d3 equal -(v_pzz1-572194.493000572)/(v_delta/v_len0)*${cfac}
variable d3 equal -(v_pzz1-572194.493000572)/(v_delta/v_len0)*0.0001
variable d4 equal -(v_pyz1-${pyz0})/(v_delta/v_len0)*${cfac}
variable d4 equal -(v_pyz1-22138.2120342392)/(v_delta/v_len0)*${cfac}
variable d4 equal -(v_pyz1-22138.2120342392)/(v_delta/v_len0)*0.0001
variable d5 equal -(v_pxz1-${pxz0})/(v_delta/v_len0)*${cfac}
variable d5 equal -(v_pxz1-38522.1645406246)/(v_delta/v_len0)*${cfac}
variable d5 equal -(v_pxz1-38522.1645406246)/(v_delta/v_len0)*0.0001
variable d6 equal -(v_pxy1-${pxy0})/(v_delta/v_len0)*${cfac}
variable d6 equal -(v_pxy1--19839.6396988141)/(v_delta/v_len0)*${cfac}
variable d6 equal -(v_pxy1--19839.6396988141)/(v_delta/v_len0)*0.0001

displace_atoms all random ${atomjiggle} ${atomjiggle} ${atomjiggle} 87287 units box
displace_atoms all random 1e-05 ${atomjiggle} ${atomjiggle} 87287 units box
displace_atoms all random 1e-05 1e-05 ${atomjiggle} 87287 units box
displace_atoms all random 1e-05 1e-05 1e-05 87287 units box
Displacing atoms ...

# Write restart
unfix 3
write_restart restart.equil
System init for write_restart ...

# uxx Perturbation

variable dir equal 1
include displace.mod
# NOTE: This script should not need to be
# modified. See in.elastic for more info.
#
# Find which reference length to use

if "${dir} == 1" then    "variable len0 equal ${lx0}"
variable len0 equal ${lx0}
variable len0 equal 9.81948074968424
if "${dir} == 2" then    "variable len0 equal ${ly0}"
if "${dir} == 3" then    "variable len0 equal ${lz0}"
if "${dir} == 4" then    "variable len0 equal ${lz0}"
if "${dir} == 5" then    "variable len0 equal ${lz0}"
if "${dir} == 6" then    "variable len0 equal ${ly0}"

# Reset box and simulation parameters

clear
OMP_NUM_THREADS environment is not set. Defaulting to 1 thread.
  using 1 OpenMP thread(s) per MPI task
Restoring plugin: Hello world command v1.1 by Axel Kohlmeyer (akohlmey@gmail.com)
WARNING: Overriding built-in command style hello from plugin (src/PLUGIN/plugin.cpp:556)
Loaded 1 plugins from C:\Users\Home\AppData\Local\LAMMPS 64-bit 22Jul2025 with GUI\plugins
box tilt large

The 'box' command has been removed and will be ignored

read_restart restart.equil
Reading restart file ...
  restart file = 22 Jul 2025, LAMMPS = 22 Jul 2025
  restoring atom style atomic from restart
  triclinic box = (0.00025962516 -0.0030292302 -0.1086) to (9.8197404 25.516138 21.8286) with tilt (0 0 0)
  1 by 1 by 1 MPI processor grid
  pair style tersoff stores no restart info
  432 atoms
  read_restart CPU = 0.001 seconds
include potential.mod
# NOTE: This script can be modified for different pair styles
# See in.elastic for more info.

# Потенциал Tersoff для SiO2
pair_style tersoff
pair_coeff * * SiO.tersoff Si O
Reading tersoff potential file SiO.tersoff with DATE: 2010-08-16

# Setup neighbor style
neighbor 1.0 nsq
neigh_modify once no every 1 delay 0 check yes

# Setup minimization style
min_style	     cg
min_modify	     dmax ${dmax} line quadratic
min_modify	     dmax 0.01 line quadratic

# Setup output
thermo		1
thermo_style custom step temp pe press pxx pyy pzz pxy pxz pyz lx ly lz vol
thermo_modify norm no

# Negative deformation

variable delta equal -${up}*${len0}
variable delta equal -1e-06*${len0}
variable delta equal -1e-06*9.81948074968424
variable deltaxy equal -${up}*xy
variable deltaxy equal -1e-06*xy
variable deltaxz equal -${up}*xz
variable deltaxz equal -1e-06*xz
variable deltayz equal -${up}*yz
variable deltayz equal -1e-06*yz
if "${dir} == 1" then    "change_box all x delta 0 ${delta} xy delta ${deltaxy} xz delta ${deltaxz} remap units box"
change_box all x delta 0 ${delta} xy delta ${deltaxy} xz delta ${deltaxz} remap units box
change_box all x delta 0 -9.81948074968424e-06 xy delta ${deltaxy} xz delta ${deltaxz} remap units box
change_box all x delta 0 -9.81948074968424e-06 xy delta 0 xz delta ${deltaxz} remap units box
change_box all x delta 0 -9.81948074968424e-06 xy delta 0 xz delta 0 remap units box
Changing box ...
  triclinic box = (0.00025962516 -0.0030292302 -0.1086) to (9.8197306 25.516138 21.8286) with tilt (0 0 0)
  triclinic box = (0.00025962516 -0.0030292302 -0.1086) to (9.8197306 25.516138 21.8286) with tilt (0 0 0)
  triclinic box = (0.00025962516 -0.0030292302 -0.1086) to (9.8197306 25.516138 21.8286) with tilt (0 0 0)
if "${dir} == 2" then    "change_box all y delta 0 ${delta} yz delta ${deltayz} remap units box"
if "${dir} == 3" then    "change_box all z delta 0 ${delta} remap units box"
if "${dir} == 4" then    "change_box all yz delta ${delta} remap units box"
if "${dir} == 5" then    "change_box all xz delta ${delta} remap units box"
if "${dir} == 6" then    "change_box all xy delta ${delta} remap units box"

# Relax atoms positions

minimize ${etol} ${ftol} ${maxiter} ${maxeval}
minimize 0 ${ftol} ${maxiter} ${maxeval}
minimize 0 1e-10 ${maxiter} ${maxeval}
minimize 0 1e-10 100 ${maxeval}
minimize 0 1e-10 100 1000
Neighbor list info ...
  update: every = 1 steps, delay = 0 steps, check = yes
  max neighbors/atom: 2000, page size: 100000
  master list distance cutoff = 3.8
  ghost atom cutoff = 3.8
  1 neighbor lists, perpetual/occasional/extra = 1 0 0
  (1) pair tersoff, perpetual
      attributes: full, newton on
      pair build: full/nsq
      stencil: none
      bin: none
Per MPI rank memory allocation (min/avg/max) = 4.19 | 4.19 | 4.19 Mbytes
   Step          Temp          PotEng         Press           Pxx            Pyy            Pzz            Pxy            Pxz            Pyz             Lx             Ly             Lz           Volume    
       100   0             -2552.853       188443.27     -11808.782      4939.3233      572199.28     -19839.172      38522.139      22137.564      9.8194709      25.519167      21.9372        5497.1271    
       101   0             -2599.8031      163507.9      -14638.162     -159.45083      505321.31     -15976.906      32372.026      17803.32       9.8194709      25.519167      21.9372        5497.1271    
       102   0             -2642.196       141258.43     -15944.058     -3554.0051      443273.36     -12651.164      27128.668      14106.26       9.8194709      25.519167      21.9372        5497.1271    
       103   0             -2679.7634      121895.53     -15705.311     -5244.4731      386636.36     -9822.6639      22727.773      11000.433      9.8194709      25.519167      21.9372        5497.1271    
       104   0             -2712.8924      105253.73     -13954.511     -5307.2811      335022.97     -7407.3388      19029.122      8391.5943      9.8194709      25.519167      21.9372        5497.1271    
       105   0             -2741.9073      91189.856     -10726.729     -3809.5972      288105.9      -5337.457       15916.408      6204.1694      9.8194709      25.519167      21.9372        5497.1271    
       106   0             -2767.0873      79576.731     -6063.5664     -815.5478       245609.31     -3558.5519      13293.193      4377.1003      9.8194709      25.519167      21.9372        5497.1271    
       107   0             -2788.6796      70298.024     -17.917978      3607.8026      207304.19     -2027.1451      11079.505      2860.8382      9.8194709      25.519167      21.9372        5497.1271    
       108   0             -2806.9119      63243.698      7339.8299      9383.8704      173007.39     -709.11879      9208.9896      1615.1176      9.8194709      25.519167      21.9372        5497.1271    
       109   0             -2822.0048      58305.396      15913.206      16418.388      142584.6       421.33849      7626.5408      607.27631      9.8194709      25.519167      21.9372        5497.1271    
       110   0             -2834.185       55371.388      25566.954      24588.103      115959.11      1382.1945      6286.3663     -189.016        9.8194709      25.519167      21.9372        5497.1271    
       111   0             -2843.7034      54320.331      36107.38       33723.828      93129.785      2183.338       5150.4589     -794.72565      9.8194709      25.519167      21.9372        5497.1271    
       112   0             -2850.8589      55012.852      47250.869      43583.567      74204.119      2825.3887      4187.5361     -1226.1788      9.8194709      25.519167      21.9372        5497.1271    
       113   0             -2856.0326      57279.468      58572.813      53808.912      59456.679      3297.0898      3372.7518     -1495.549       9.8194709      25.519167      21.9372        5497.1271    
       114   0             -2859.7316      60902.545      69429.637      63857.799      49420.198      3570.9105      2689.0926     -1611.0971      9.8194709      25.519167      21.9372        5497.1271    
       115   0             -2862.6145      65588.141      78880.181      72933.527      44950.714      3599.3033      2132.5979     -1577.5581      9.8194709      25.519167      21.9372        5497.1271    
       116   0             -2865.3623      70912.356      85834.395      80093.827      46808.847      3331.505       1721.942      -1401.1018      9.8194709      25.519167      21.9372        5497.1271    
       117   0             -2868.1886      76206.811      90086.28       85072.076      53462.075      2810.7524      1482.922      -1119.9527      9.8194709      25.519167      21.9372        5497.1271    
       118   0             -2870.723       80713.636      93083.73       88902.867      60154.312      2238.9158      1363.6925     -838.97192      9.8194709      25.519167      21.9372        5497.1271    
       119   0             -2872.8939      84267.676      95397.887      91942.673      65462.469      1709.8309      1292.6332     -606.74042      9.8194709      25.519167      21.9372        5497.1271    
       120   0             -2874.7862      86933.189      96926.436      94082.835      69790.294      1229.9037      1261.6442     -398.43284      9.8194709      25.519167      21.9372        5497.1271    
       121   0             -2876.4353      88751.04       97756.603      95429.52       73066.997      806.24159      1257.5041     -216.1422       9.8194709      25.519167      21.9372        5497.1271    
       122   0             -2877.8808      89781.856      97885.248      95999.989      75460.332      438.16153      1272.516      -60.10945       9.8194709      25.519167      21.9372        5497.1271    
       123   0             -2879.1433      90089.777      97400.018      95896.232      76973.081      127.18541      1296.8183      65.75774       9.8194709      25.519167      21.9372        5497.1271    
       124   0             -2880.2451      89740.09       96313.502      95141.822      77764.947     -130.33385      1323.6921      162.99198      9.8194709      25.519167      21.9372        5497.1271    
       125   0             -2881.1952      88808.481      94763.289      93879.708      77782.448     -334.31264      1343.692       229.7713       9.8194709      25.519167      21.9372        5497.1271    
       126   0             -2882.0158      87338.647      92667.574      92030.289      77318.077     -491.77023      1354.1643      272.93598      9.8194709      25.519167      21.9372        5497.1271    
       127   0             -2882.7008      85445.604      90466.581      90037.882      75832.35      -597.62687      1339.24        282.14549      9.8194709      25.519167      21.9372        5497.1271    
       128   0             -2883.3169      82899.044      86848.259      86566.224      75282.65      -674.85435      1325.8365      301.57386      9.8194709      25.519167      21.9372        5497.1271    
       129   0             -2883.6397      80896.489      87265.056      87207.398      68217.013     -682.00846      1186.262       176.34973      9.8194709      25.519167      21.9372        5497.1271    
       130   0             -2884.1389      77415.755      80318.196      80190.679      71738.391     -699.55059      1220.1418      273.62543      9.8194709      25.519167      21.9372        5497.1271    
       131   0             -2884.4407      74519.299      78774.574      78854.094      65929.228     -714.29937      1062.1915      174.16424      9.8194709      25.519167      21.9372        5497.1271    
       132   0             -2884.6425      70995.498      73185.353      72907.577      66893.562     -516.80845      1073.0864      270.76072      9.8194709      25.519167      21.9372        5497.1271    
       133   0             -2884.8788      66801.61       70054.436      69929.51       60420.883     -488.34296      797.87838      133.22899      9.8194709      25.519167      21.9372        5497.1271    
       134   0             -2884.8989      66716.044      71085.054      71137.713      57925.363     -550.62703      715.54959      70.589813      9.8194709      25.519167      21.9372        5497.1271    
       135   0             -2884.9852      64487.184      69345.18       69349.979      54766.392     -363.08922      552.88301      135.85712      9.8194709      25.519167      21.9372        5497.1271    
       136   0             -2884.9895      63995.004      68783.376      68527.1        54674.536     -432.94882      195.94033     -137.87865      9.8194709      25.519167      21.9372        5497.1271    
       137   0             -2885.0023      62205.869      67249.854      66514.07       52853.684     -41.453761      169.14043     -11.00487       9.8194709      25.519167      21.9372        5497.1271    
       138   0             -2885.0035      62251.923      66950.647      67021.245      52783.878     -202.1226       324.30424      123.06138      9.8194709      25.519167      21.9372        5497.1271    
       139   0             -2885.0041      62496.029      67157.872      67177.844      53152.37      -285.90323      281.86539     -30.342437      9.8194709      25.519167      21.9372        5497.1271    
       140   0             -2885.0043      62596.421      67463.473      67208.694      53117.096     -186.4176       286.50701      12.604878      9.8194709      25.519167      21.9372        5497.1271    
       141   0             -2885.0047      62588.927      67352.361      67339.808      53074.612     -183.55281      134.35614      152.30575      9.8194709      25.519167      21.9372        5497.1271    
       142   0             -2885.005       62440.905      67200.057      67135.266      52987.394     -104.25963      185.53064     -16.208614      9.8194709      25.519167      21.9372        5497.1271    
       143   0             -2885.0051      62340.713      67201.058      67093.808      52727.272     -94.934408      166.32783     -44.381968      9.8194709      25.519167      21.9372        5497.1271    
       144   0             -2885.0052      62273.329      67124.007      66988.718      52707.261     -101.94278      90.950659      46.017502      9.8194709      25.519167      21.9372        5497.1271    
       145   0             -2885.0053      62262.517      67151.211      66867.556      52768.783      7.2116266      83.526024      17.727222      9.8194709      25.519167      21.9372        5497.1271    
       146   0             -2885.0054      62261.024      67107.119      66955.114      52720.841     -15.203785      47.057296     -2.6209787      9.8194709      25.519167      21.9372        5497.1271    
       147   0             -2885.0054      62258.271      67076.229      66960.42       52738.162     -20.903626      42.461492      27.333472      9.8194709      25.519167      21.9372        5497.1271    
       148   0             -2885.0054      62253.41       67102.254      66928.869      52729.107     -13.142694      15.715244      22.994616      9.8194709      25.519167      21.9372        5497.1271    
       149   0             -2885.0054      62254.501      67091.665      66944.173      52727.664     -25.285438      14.745487      7.8903488      9.8194709      25.519167      21.9372        5497.1271    
       150   0             -2885.0054      62276.174      67105.47       66957.078      52765.975     -10.404394      12.471961      11.645068      9.8194709      25.519167      21.9372        5497.1271    
       151   0             -2885.0054      62305.251      67140.116      66993.943      52781.694     -2.0449424     -3.2368335      9.3831111      9.8194709      25.519167      21.9372        5497.1271    
       152   0             -2885.0054      62315.134      67155.522      67002.377      52787.504     -2.0651313     -0.32143125     8.9338735      9.8194709      25.519167      21.9372        5497.1271    
       153   0             -2885.0054      62315.498      67154.239      66998.069      52794.187     -0.17004046    -0.26027588     9.380356       9.8194709      25.519167      21.9372        5497.1271    
       154   0             -2885.0054      62314.66       67153.359      66999.11       52791.511      0.63752063    -0.52232939     10.726907      9.8194709      25.519167      21.9372        5497.1271    
       155   0             -2885.0054      62314.315      67151.014      67000.254      52791.678     -0.61639111     1.1460097      11.434214      9.8194709      25.519167      21.9372        5497.1271    
       156   0             -2885.0054      62314.007      67150.416      66999.37       52792.234     -1.0497112      1.5226347      10.933853      9.8194709      25.519167      21.9372        5497.1271    
       157   0             -2885.0054      62314.154      67151.245      66999.271      52791.945     -0.66152524     1.4188709      11.578806      9.8194709      25.519167      21.9372        5497.1271    
       158   0             -2885.0054      62314.495      67151.031      66999.741      52792.714     -1.0263968      0.90555118     11.847946      9.8194709      25.519167      21.9372        5497.1271    
       159   0             -2885.0054      62315.321      67151.97       67000.335      52793.658     -0.60908761     0.73172691     11.233194      9.8194709      25.519167      21.9372        5497.1271    
       160   0             -2885.0054      62315.422      67152.254      67000.277      52793.736     -0.40301547     0.62160387     11.147929      9.8194709      25.519167      21.9372        5497.1271    
       161   0             -2885.0054      62315.297      67152.141      67000.017      52793.732     -0.34526666     0.087655171    11.1646        9.8194709      25.519167      21.9372        5497.1271    
       162   0             -2885.0054      62315.263      67152.306      66999.944      52793.539     -0.097423068    0.16059209     11.107392      9.8194709      25.519167      21.9372        5497.1271    
       163   0             -2885.0054      62315.374      67152.301      67000.125      52793.697     -0.067394931    0.22797674     10.894447      9.8194709      25.519167      21.9372        5497.1271    
       164   0             -2885.0054      62315.67       67152.462      67000.565      52793.983     -0.097585795    0.1839768      11.118098      9.8194709      25.519167      21.9372        5497.1271    
       165   0             -2885.0054      62315.783      67152.664      67000.664      52794.02      -0.087329523    0.10488253     11.20646       9.8194709      25.519167      21.9372        5497.1271    
       166   0             -2885.0054      62315.802      67152.661      67000.631      52794.113     -0.1191316      0.13060312     11.177974      9.8194709      25.519167      21.9372        5497.1271    
       167   0             -2885.0054      62315.774      67152.674      67000.624      52794.023     -0.11534419     0.17167143     11.14046       9.8194709      25.519167      21.9372        5497.1271    
       168   0             -2885.0054      62315.577      67152.469      67000.384      52793.877     -0.022985214    0.03543931     11.107961      9.8194709      25.519167      21.9372        5497.1271    
       169   0             -2885.0054      62315.525      67152.421      67000.339      52793.815     -0.0028353288   0.0075710189   11.137079      9.8194709      25.519167      21.9372        5497.1271    
       170   0             -2885.0054      62315.53       67152.424      67000.359      52793.808     -0.012946992    0.0037846589   11.13982       9.8194709      25.519167      21.9372        5497.1271    
       171   0             -2885.0054      62315.547      67152.443      67000.361      52793.836     -0.0010993883   0.0024834471   11.133888      9.8194709      25.519167      21.9372        5497.1271    
       172   0             -2885.0054      62315.557      67152.463      67000.379      52793.828      0.0015690379   0.0028309258   11.131402      9.8194709      25.519167      21.9372        5497.1271    
       173   0             -2885.0054      62315.556      67152.455      67000.382      52793.832     -0.0035183605   0.0014768046   11.133399      9.8194709      25.519167      21.9372        5497.1271    
       174   0             -2885.0054      62315.548      67152.453      67000.374      52793.817      0.003849238    0.00029211673  11.13315       9.8194709      25.519167      21.9372        5497.1271    
       175   0             -2885.0054      62315.539      67152.442      67000.368      52793.806      1.9574128e-05 -0.00045124138  11.131112      9.8194709      25.519167      21.9372        5497.1271    
       176   0             -2885.0054      62315.535      67152.437      67000.363      52793.804     -0.0014514067   0.0028203862   11.13279       9.8194709      25.519167      21.9372        5497.1271    
       177   0             -2885.0054      62315.528      67152.436      67000.356      52793.791     -0.0022391244  -0.0051030786   11.129163      9.8194709      25.519167      21.9372        5497.1271    
       178   0             -2885.0054      62315.521      67152.429      67000.34       52793.794      0.0030281163  -0.0030738926   11.131201      9.8194709      25.519167      21.9372        5497.1271    
       179   0             -2885.0054      62315.518      67152.419      67000.349      52793.787     -0.0036907984  -0.0036509152   11.129813      9.8194709      25.519167      21.9372        5497.1271    
       180   0             -2885.0054      62315.518      67152.42       67000.346      52793.789      0.0042952     -0.0068709106   11.128436      9.8194709      25.519167      21.9372        5497.1271    
       181   0             -2885.0054      62315.519      67152.422      67000.345      52793.791      0.0065346101  -0.0057151861   11.130429      9.8194709      25.519167      21.9372        5497.1271    
       182   0             -2885.0054      62315.521      67152.425      67000.349      52793.789      0.0034181024  -0.0068821074   11.129761      9.8194709      25.519167      21.9372        5497.1271    
       183   0             -2885.0054      62315.525      67152.433      67000.347      52793.796      0.010137879   -0.0038991311   11.130361      9.8194709      25.519167      21.9372        5497.1271    
       184   0             -2885.0054      62315.53       67152.437      67000.356      52793.798      0.0064105832  -0.0053986729   11.130364      9.8194709      25.519167      21.9372        5497.1271    
       185   0             -2885.0054      62315.535      67152.44       67000.362      52793.803      0.0043775387  -0.0043881513   11.132747      9.8194709      25.519167      21.9372        5497.1271    
       186   0             -2885.0054      62315.539      67152.444      67000.365      52793.809      0.0041176012  -0.0047914773   11.132229      9.8194709      25.519167      21.9372        5497.1271    
       187   0             -2885.0054      62315.543      67152.447      67000.37       52793.811      0.0005946519  -0.0032456536   11.131841      9.8194709      25.519167      21.9372        5497.1271    
       188   0             -2885.0054      62315.544      67152.446      67000.369      52793.816      0.00020294227 -0.0023296627   11.132321      9.8194709      25.519167      21.9372        5497.1271    
       189   0             -2885.0054      62315.544      67152.447      67000.37       52793.814      0.00010965653 -0.002768732    11.131979      9.8194709      25.519167      21.9372        5497.1271    
       190   0             -2885.0054      62315.542      67152.444      67000.369      52793.814      0.00067852729 -0.00028419908  11.131852      9.8194709      25.519167      21.9372        5497.1271    
       191   0             -2885.0054      62315.542      67152.443      67000.368      52793.814      0.00070460862  5.5153093e-06  11.131271      9.8194709      25.519167      21.9372        5497.1271    
       192   0             -2885.0054      62315.542      67152.444      67000.368      52793.813      0.0014410587   0.00031308868  11.131298      9.8194709      25.519167      21.9372        5497.1271    
       193   0             -2885.0054      62315.542      67152.444      67000.366      52793.815     -0.00020197947  0.0011785838   11.131428      9.8194709      25.519167      21.9372        5497.1271    
       194   0             -2885.0054      62315.541      67152.445      67000.369      52793.81      -0.0019298153   0.0024908953   11.131005      9.8194709      25.519167      21.9372        5497.1271    
       195   0             -2885.0054      62315.541      67152.443      67000.367      52793.811     -0.0019093976   0.0033816572   11.131448      9.8194709      25.519167      21.9372        5497.1271    
       196   0             -2885.0054      62315.54       67152.442      67000.367      52793.809     -0.0030245506   0.0026309316   11.132136      9.8194709      25.519167      21.9372        5497.1271    
       197   0             -2885.0054      62315.538      67152.44       67000.365      52793.808     -0.0024054058   0.0032108328   11.133284      9.8194709      25.519167      21.9372        5497.1271    
       198   0             -2885.0054      62315.535      67152.437      67000.363      52793.806     -0.0028687915   0.0034708608   11.133371      9.8194709      25.519167      21.9372        5497.1271    
       199   0             -2885.0054      62315.535      67152.437      67000.362      52793.804     -0.0025899773   0.0038904932   11.134657      9.8194709      25.519167      21.9372        5497.1271    
       200   0             -2885.0054      62315.536      67152.437      67000.363      52793.808     -0.0022632108   0.0014037264   11.134941      9.8194709      25.519167      21.9372        5497.1271    
Loop time of 0.183546 on 1 procs for 100 steps with 432 atoms

76.6% CPU use with 1 MPI tasks x 1 OpenMP threads

Minimization stats:
  Stopping criterion = max iterations
  Energy initial, next-to-last, final = 
     -2552.85296917179  -2885.00544617391   -2885.0054461739
  Force two-norm initial, final = 260.86339 2.6717361e-06
  Force max component initial, final = 13.851816 2.7312987e-07
  Final line search alpha, max atom move = 1 2.7312987e-07
  Iterations, force evaluations = 100 166

MPI task timing breakdown:
Section |  min time  |  avg time  |  max time  |%varavg| %total
---------------------------------------------------------------
Pair    | 0.15851    | 0.15851    | 0.15851    |   0.0 | 86.36
Neigh   | 0          | 0          | 0          |   0.0 |  0.00
Comm    | 0.000678   | 0.000678   | 0.000678   |   0.0 |  0.37
Output  | 0.022703   | 0.022703   | 0.022703   |   0.0 | 12.37
Modify  | 0          | 0          | 0          |   0.0 |  0.00
Other   |            | 0.001651   |            |       |  0.90

Nlocal:            432 ave         432 max         432 min
Histogram: 1 0 0 0 0 0 0 0 0 0
Nghost:            973 ave         973 max         973 min
Histogram: 1 0 0 0 0 0 0 0 0 0
Neighs:              0 ave           0 max           0 min
Histogram: 1 0 0 0 0 0 0 0 0 0
FullNghs:         6624 ave        6624 max        6624 min
Histogram: 1 0 0 0 0 0 0 0 0 0

Total # of neighbors = 6624
Ave neighs/atom = 15.333333
Neighbor list builds = 0
Dangerous builds = 0

# Obtain new stress tensor

variable tmp equal pxx
variable pxx1 equal ${tmp}
variable pxx1 equal 67152.4370064292
variable tmp equal pyy
variable pyy1 equal ${tmp}
variable pyy1 equal 67000.363230066
variable tmp equal pzz
variable pzz1 equal ${tmp}
variable pzz1 equal 52793.8080502975
variable tmp equal pxy
variable pxy1 equal ${tmp}
variable pxy1 equal -0.00226321076948413
variable tmp equal pxz
variable pxz1 equal ${tmp}
variable pxz1 equal 0.00140372641594953
variable tmp equal pyz
variable pyz1 equal ${tmp}
variable pyz1 equal 11.1349405372136

# Compute elastic constant from pressure tensor

variable C1neg equal ${d1}
variable C1neg equal 7896283.89121615
variable C2neg equal ${d2}
variable C2neg equal 6206044.6124374
variable C3neg equal ${d3}
variable C3neg equal -51940068.4950275
variable C4neg equal ${d4}
variable C4neg equal -2212707.7093702
variable C5neg equal ${d5}
variable C5neg equal -3852216.31368982
variable C6neg equal ${d6}
variable C6neg equal 1983963.74356033

# Reset box and simulation parameters

clear
OMP_NUM_THREADS environment is not set. Defaulting to 1 thread.
  using 1 OpenMP thread(s) per MPI task
Restoring plugin: Hello world command v1.1 by Axel Kohlmeyer (akohlmey@gmail.com)
WARNING: Overriding built-in command style hello from plugin (src/PLUGIN/plugin.cpp:556)
Loaded 1 plugins from C:\Users\Home\AppData\Local\LAMMPS 64-bit 22Jul2025 with GUI\plugins
box tilt large

The 'box' command has been removed and will be ignored

read_restart restart.equil
Reading restart file ...
  restart file = 22 Jul 2025, LAMMPS = 22 Jul 2025
  restoring atom style atomic from restart
  triclinic box = (0.00025962516 -0.0030292302 -0.1086) to (9.8197404 25.516138 21.8286) with tilt (0 0 0)
  1 by 1 by 1 MPI processor grid
  pair style tersoff stores no restart info
  432 atoms
  read_restart CPU = 0.001 seconds
include potential.mod
# NOTE: This script can be modified for different pair styles
# See in.elastic for more info.

# Потенциал Tersoff для SiO2
pair_style tersoff
pair_coeff * * SiO.tersoff Si O
Reading tersoff potential file SiO.tersoff with DATE: 2010-08-16

# Setup neighbor style
neighbor 1.0 nsq
neigh_modify once no every 1 delay 0 check yes

# Setup minimization style
min_style	     cg
min_modify	     dmax ${dmax} line quadratic
min_modify	     dmax 0.01 line quadratic

# Setup output
thermo		1
thermo_style custom step temp pe press pxx pyy pzz pxy pxz pyz lx ly lz vol
thermo_modify norm no

# Positive deformation

variable delta equal ${up}*${len0}
variable delta equal 1e-06*${len0}
variable delta equal 1e-06*9.81948074968424
variable deltaxy equal ${up}*xy
variable deltaxy equal 1e-06*xy
variable deltaxz equal ${up}*xz
variable deltaxz equal 1e-06*xz
variable deltayz equal ${up}*yz
variable deltayz equal 1e-06*yz
if "${dir} == 1" then    "change_box all x delta 0 ${delta} xy delta ${deltaxy} xz delta ${deltaxz} remap units box"
change_box all x delta 0 ${delta} xy delta ${deltaxy} xz delta ${deltaxz} remap units box
change_box all x delta 0 9.81948074968424e-06 xy delta ${deltaxy} xz delta ${deltaxz} remap units box
change_box all x delta 0 9.81948074968424e-06 xy delta 0 xz delta ${deltaxz} remap units box
change_box all x delta 0 9.81948074968424e-06 xy delta 0 xz delta 0 remap units box
Changing box ...
  triclinic box = (0.00025962516 -0.0030292302 -0.1086) to (9.8197502 25.516138 21.8286) with tilt (0 0 0)
  triclinic box = (0.00025962516 -0.0030292302 -0.1086) to (9.8197502 25.516138 21.8286) with tilt (0 0 0)
  triclinic box = (0.00025962516 -0.0030292302 -0.1086) to (9.8197502 25.516138 21.8286) with tilt (0 0 0)
if "${dir} == 2" then    "change_box all y delta 0 ${delta} yz delta ${deltayz} remap units box"
if "${dir} == 3" then    "change_box all z delta 0 ${delta} remap units box"
if "${dir} == 4" then    "change_box all yz delta ${delta} remap units box"
if "${dir} == 5" then    "change_box all xz delta ${delta} remap units box"
if "${dir} == 6" then    "change_box all xy delta ${delta} remap units box"

# Relax atoms positions

minimize ${etol} ${ftol} ${maxiter} ${maxeval}
minimize 0 ${ftol} ${maxiter} ${maxeval}
minimize 0 1e-10 ${maxiter} ${maxeval}
minimize 0 1e-10 100 ${maxeval}
minimize 0 1e-10 100 1000
Neighbor list info ...
  update: every = 1 steps, delay = 0 steps, check = yes
  max neighbors/atom: 2000, page size: 100000
  master list distance cutoff = 3.8
  ghost atom cutoff = 3.8
  1 neighbor lists, perpetual/occasional/extra = 1 0 0
  (1) pair tersoff, perpetual
      attributes: full, newton on
      pair build: full/nsq
      stencil: none
      bin: none
Per MPI rank memory allocation (min/avg/max) = 4.19 | 4.19 | 4.19 Mbytes
   Step          Temp          PotEng         Press           Pxx            Pyy            Pzz            Pxy            Pxz            Pyz             Lx             Ly             Lz           Volume    
       100   0             -2552.8529      188440.2      -11812.516      4938.4719      572194.65     -19839.099      38521.955      22138.205      9.8194906      25.519167      21.9372        5497.1381    
       101   0             -2599.803       163504.87     -14642.004     -160.39136      505317.02     -15976.854      32371.896      17803.814      9.8194906      25.519167      21.9372        5497.1381    
       102   0             -2642.1957      141255.45     -15948.023     -3555.0342      443269.41     -12651.131      27128.582      14106.631      9.8194906      25.519167      21.9372        5497.1381    
       103   0             -2679.7631      121892.57     -15709.412     -5245.5944      386632.7      -9822.6473      22727.72       11000.697      9.8194906      25.519167      21.9372        5497.1381    
       104   0             -2712.8921      105250.77     -13958.757     -5308.5004      335019.58     -7407.3355      19029.095      8391.7677      9.8194906      25.519167      21.9372        5497.1381    
       105   0             -2741.907       91186.897     -10731.127     -3810.9226      288102.74     -5337.4649      15916.4        6204.2657      9.8194906      25.519167      21.9372        5497.1381    
       106   0             -2767.087       79573.751     -6068.1163     -816.98885      245606.36     -3558.5693      13293.199      4377.1319      9.8194906      25.519167      21.9372        5497.1381    
       107   0             -2788.6793      70295.011     -22.61777       3606.2349      207301.42     -2027.1703      11079.522      2860.8169      9.8194906      25.519167      21.9372        5497.1381    
       108   0             -2806.9118      63240.641      7334.988       9382.1641      173004.77     -709.15063      9209.0142      1615.0549      9.8194906      25.519167      21.9372        5497.1381    
       109   0             -2822.0048      58302.285      15908.235      16416.531      142582.09      421.30143      7626.5709      607.18401      9.8194906      25.519167      21.9372        5497.1381    
       110   0             -2834.1851      55368.217      25561.877      24586.085      115956.69      1382.1536      6286.4001     -189.12563      9.8194906      25.519167      21.9372        5497.1381    
       111   0             -2843.7036      54317.095      36102.229      33721.64       93127.416      2183.2949      5150.4948     -794.83964      9.8194906      25.519167      21.9372        5497.1381    
       112   0             -2850.8592      55009.551      47245.689      43581.207      74201.756      2825.3456      4187.5729     -1226.2835      9.8194906      25.519167      21.9372        5497.1381    
       113   0             -2856.033       57276.108      58567.668      53806.393      59454.263      3297.0498      3372.7885     -1495.6308      9.8194906      25.519167      21.9372        5497.1381    
       114   0             -2859.7321      60899.141      69424.618      63855.159      49417.646      3570.8783      2689.1277     -1611.1436      9.8194906      25.519167      21.9372        5497.1381    
       115   0             -2862.615       65584.72       78875.404      72930.843      44947.912      3599.2854      2132.6289     -1577.5624      9.8194906      25.519167      21.9372        5497.1381    
       116   0             -2865.3629      70908.966      85829.965      80091.207      46805.725      3331.5073      1721.964      -1401.0684      9.8194906      25.519167      21.9372        5497.1381    
       117   0             -2868.1891      76203.521      90082.149      85069.566      53458.849      2810.7684      1482.932      -1119.8977      9.8194906      25.519167      21.9372        5497.1381    
       118   0             -2870.7236      80710.491      93079.761      88900.432      60151.28       2238.9315      1363.6961     -838.90629      9.8194906      25.519167      21.9372        5497.1381    
       119   0             -2872.8945      84264.664      95394.073      91940.333      65459.586      1709.8451      1292.6327     -606.67236      9.8194906      25.519167      21.9372        5497.1381    
       120   0             -2874.7868      86930.299      96922.757      94080.581      69787.558      1229.9152      1261.6405     -398.36789      9.8194906      25.519167      21.9372        5497.1381    
       121   0             -2876.4359      88748.258      97753.043      95427.345      73064.384      806.25073      1257.4986     -216.08096      9.8194906      25.519167      21.9372        5497.1381    
       122   0             -2877.8814      89779.165      97881.788      95997.879      75457.829      438.16802      1272.5094     -60.052445      9.8194906      25.519167      21.9372        5497.1381    
       123   0             -2879.1439      90087.161      97396.641      95894.176      76970.666      127.18985      1296.8115      65.811501      9.8194906      25.519167      21.9372        5497.1381    
       124   0             -2880.2457      89737.534      96310.188      95139.804      77762.609     -130.33162      1323.6852      163.04214      9.8194906      25.519167      21.9372        5497.1381    
       125   0             -2881.1958      88805.97       94760.028      93877.719      77780.163     -334.31136      1343.6859      229.81945      9.8194906      25.519167      21.9372        5497.1381    
       126   0             -2882.0164      87336.167      92664.337      92028.308      77315.855     -491.77123      1354.1573      272.97907      9.8194906      25.519167      21.9372        5497.1381    
       127   0             -2882.7013      85443.152      90463.406      90035.935      75830.115     -597.62424      1339.2358      282.19096      9.8194906      25.519167      21.9372        5497.1381    
       128   0             -2883.3174      82896.577      86844.918      86564.137      75280.676     -674.86724      1325.8183      301.59042      9.8194906      25.519167      21.9372        5497.1381    
       129   0             -2883.6402      80894.16       87262.433      87205.833      68214.214     -681.95557      1186.2956      176.45843      9.8194906      25.519167      21.9372        5497.1381    
       130   0             -2884.1395      77413.216      80316.284      80190.143      71733.22      -699.57923      1220.0474      273.53547      9.8194906      25.519167      21.9372        5497.1381    
       131   0             -2884.4412      74516.982      78774.332      78855.165      65921.449     -714.29275      1062.0564      174.07965      9.8194906      25.519167      21.9372        5497.1381    
       132   0             -2884.6429      70992.459      73179.561      72904.313      66893.505     -517.5117       1072.9198      270.50888      9.8194906      25.519167      21.9372        5497.1381    
       133   0             -2884.8787      66796.221      70031.828      69906.912      60449.922     -488.06625      799.09434      134.14165      9.8194906      25.519167      21.9372        5497.1381    
       134   0             -2884.8992      66711.199      71074.833      71128.623      57930.14      -550.76922      715.99778      70.765473      9.8194906      25.519167      21.9372        5497.1381    
       135   0             -2884.9856      64487.176      69344.874      69348.916      54767.737     -362.05154      553.55276      136.37464      9.8194906      25.519167      21.9372        5497.1381    
       136   0             -2884.9899      63998.316      68788.355      68540.873      54665.72      -436.24734      196.11102     -138.73347      9.8194906      25.519167      21.9372        5497.1381    
       137   0             -2885.0028      62197.313      67242.967      66506.766      52842.206     -42.656549      166.03912     -14.619084      9.8194906      25.519167      21.9372        5497.1381    
       138   0             -2885.004       62243.631      66945.881      67010.71       52774.301     -199.25852      323.30215      122.90584      9.8194906      25.519167      21.9372        5497.1381    
       139   0             -2885.0046      62482.057      67143.58       67170.831      53131.76      -286.25835      280.88516     -27.126478      9.8194906      25.519167      21.9372        5497.1381    
       140   0             -2885.0048      62584.69       67448.655      67198.634      53106.78      -187.52873      286.48626      12.67831       9.8194906      25.519167      21.9372        5497.1381    
       141   0             -2885.0051      62581.634      67347.307      67332.206      53065.388     -182.03166      134.6286       149.79588      9.8194906      25.519167      21.9372        5497.1381    
       142   0             -2885.0054      62439.088      67196.03       67133.999      52987.234     -105.53196      182.57265     -16.379773      9.8194906      25.519167      21.9372        5497.1381    
       143   0             -2885.0056      62338.468      67199.245      67089.997      52726.161     -91.967588      167.17545     -44.907003      9.8194906      25.519167      21.9372        5497.1381    
       144   0             -2885.0057      62270.674      67120.582      66987.484      52703.955     -100.84651      88.345132      44.813148      9.8194906      25.519167      21.9372        5497.1381    
       145   0             -2885.0058      62260.124      67148.409      66865.07       52766.895      6.7441667      81.72476       19.5021        9.8194906      25.519167      21.9372        5497.1381    
       146   0             -2885.0059      62259.021      67105.76       66952.627      52718.677     -13.725637      45.68131      -2.3882726      9.8194906      25.519167      21.9372        5497.1381    
       147   0             -2885.0059      62256.685      67074.222      66959.192      52736.641     -19.736455      41.334423      26.712141      9.8194906      25.519167      21.9372        5497.1381    
       148   0             -2885.0059      62252.585      67100.254      66929.202      52728.299     -12.382702      15.022141      22.883635      9.8194906      25.519167      21.9372        5497.1381    
       149   0             -2885.0059      62254.245      67090.426      66944.203      52728.106     -24.3977        13.777286      7.9126963      9.8194906      25.519167      21.9372        5497.1381    
       150   0             -2885.0059      62274.294      67104.535      66955.767      52762.58      -10.072406      12.510833      11.394888      9.8194906      25.519167      21.9372        5497.1381    
       151   0             -2885.0059      62303.8        67138.443      66992.099      52780.86      -1.6337676     -3.3294986      8.900278       9.8194906      25.519167      21.9372        5497.1381    
       152   0             -2885.0059      62313.307      67152.484      67001.05       52786.388     -2.2705708     -0.61968008     8.9466779      9.8194906      25.519167      21.9372        5497.1381    
       153   0             -2885.0059      62313.72       67151.93       66996.411      52792.818      0.094264185   -0.35024013     9.3478798      9.8194906      25.519167      21.9372        5497.1381    
       154   0             -2885.0059      62313.052      67151.248      66997.703      52790.205      0.73226438    -0.59588588     10.340097      9.8194906      25.519167      21.9372        5497.1381    
       155   0             -2885.0059      62312.728      67148.819      66998.874      52790.49      -0.43418693     0.89739123     11.310952      9.8194906      25.519167      21.9372        5497.1381    
       156   0             -2885.0059      62312.382      67148.083      66998.079      52790.983     -1.0088164      1.3451767      11.019784      9.8194906      25.519167      21.9372        5497.1381    
       157   0             -2885.0059      62312.496      67148.874      66998.001      52790.613     -0.66241065     1.3375428      11.499172      9.8194906      25.519167      21.9372        5497.1381    
       158   0             -2885.0059      62312.817      67148.705      66998.388      52791.357     -0.94621968     0.86759462     11.694089      9.8194906      25.519167      21.9372        5497.1381    
       159   0             -2885.0059      62313.561      67149.551      66998.921      52792.211     -0.57015268     0.67559468     11.162877      9.8194906      25.519167      21.9372        5497.1381    
       160   0             -2885.0059      62313.653      67149.79       66998.868      52792.301     -0.38847715     0.59167747     11.087862      9.8194906      25.519167      21.9372        5497.1381    
       161   0             -2885.0059      62313.502      67149.638      66998.608      52792.26      -0.33929754     0.098978416    11.072824      9.8194906      25.519167      21.9372        5497.1381    
       162   0             -2885.0059      62313.456      67149.792      66998.506      52792.071     -0.10062614     0.15080987     11.034801      9.8194906      25.519167      21.9372        5497.1381    
       163   0             -2885.0059      62313.578      67149.811      66998.691      52792.233     -0.063214492    0.23916376     10.837682      9.8194906      25.519167      21.9372        5497.1381    
       164   0             -2885.0059      62313.881      67149.986      66999.141      52792.517     -0.097077134    0.18539147     11.035611      9.8194906      25.519167      21.9372        5497.1381    
       165   0             -2885.0059      62313.983      67150.18       66999.205      52792.563     -0.072717652    0.088781077    11.120923      9.8194906      25.519167      21.9372        5497.1381    
       166   0             -2885.0059      62313.997      67150.175      66999.184      52792.631     -0.1076826      0.10952383     11.096037      9.8194906      25.519167      21.9372        5497.1381    
       167   0             -2885.0059      62313.968      67150.181      66999.169      52792.555     -0.10164986     0.16051898     11.061133      9.8194906      25.519167      21.9372        5497.1381    
       168   0             -2885.0059      62313.796      67150.011      66998.954      52792.424     -0.019636909    0.042948048    11.024083      9.8194906      25.519167      21.9372        5497.1381    
       169   0             -2885.0059      62313.74       67149.952      66998.908      52792.36      -0.0012834827   0.0071408469   11.059955      9.8194906      25.519167      21.9372        5497.1381    
       170   0             -2885.0059      62313.744      67149.951      66998.928      52792.352     -0.011739627    0.0029602935   11.065255      9.8194906      25.519167      21.9372        5497.1381    
       171   0             -2885.0059      62313.758      67149.968      66998.929      52792.376     -0.00079926779  0.001067005    11.058015      9.8194906      25.519167      21.9372        5497.1381    
       172   0             -2885.0059      62313.767      67149.987      66998.945      52792.368      0.0023007651   0.0033189575   11.055568      9.8194906      25.519167      21.9372        5497.1381    
       173   0             -2885.0059      62313.767      67149.979      66998.949      52792.373     -0.0034213249   0.0010124005   11.056847      9.8194906      25.519167      21.9372        5497.1381    
[...]
       161   0             -2885.0057      62314.399      67150.889      66999.312      52792.995     -0.60331945     0.05359994     11.119401      9.8194807      25.519167      21.9372        5497.1326    
       162   0             -2885.0057      62314.359      67151.048      66999.223      52792.805     -0.35992115     0.11643524     11.072207      9.8194807      25.519167      21.9372        5497.1326    
       163   0             -2885.0057      62314.475      67151.055      66999.407      52792.964     -0.32672503     0.19637589     10.864779      9.8194807      25.519167      21.9372        5497.1326    
       164   0             -2885.0057      62314.776      67151.223      66999.853      52793.25      -0.35866224     0.14629063     11.076341      9.8194807      25.519167      21.9372        5497.1326    
       165   0             -2885.0057      62314.883      67151.422      66999.934      52793.292     -0.34078213     0.058229177    11.164046      9.8194807      25.519167      21.9372        5497.1326    
       166   0             -2885.0057      62314.899      67151.418      66999.907      52793.372     -0.37458293     0.081512173    11.13691       9.8194807      25.519167      21.9372        5497.1326    
       167   0             -2885.0057      62314.871      67151.428      66999.896      52793.289     -0.36939032     0.12767031     11.100506      9.8194807      25.519167      21.9372        5497.1326    
       168   0             -2885.0057      62314.687      67151.241      66999.669      52793.15      -0.2823276      0.0005652715   11.065691      9.8194807      25.519167      21.9372        5497.1326    
       169   0             -2885.0057      62314.633      67151.186      66999.624      52793.088     -0.26318685    -0.031008303    11.098472      9.8194807      25.519167      21.9372        5497.1326    
       170   0             -2885.0057      62314.637      67151.187      66999.643      52793.08      -0.27355555    -0.034862532    11.102582      9.8194807      25.519167      21.9372        5497.1326    
       171   0             -2885.0057      62314.652      67151.205      66999.645      52793.106     -0.26212818    -0.036555825    11.095957      9.8194807      25.519167      21.9372        5497.1326    
       172   0             -2885.0057      62314.662      67151.225      66999.662      52793.098     -0.25920808    -0.035242844    11.093469      9.8194807      25.519167      21.9372        5497.1326    
       173   0             -2885.0057      62314.662      67151.217      66999.666      52793.103     -0.26467941    -0.037013302    11.095141      9.8194807      25.519167      21.9372        5497.1326    
       174   0             -2885.0057      62314.654      67151.216      66999.657      52793.088     -0.2573143     -0.038333688    11.095088      9.8194807      25.519167      21.9372        5497.1326    
       175   0             -2885.0057      62314.645      67151.205      66999.652      52793.078     -0.26103241    -0.039097209    11.09285       9.8194807      25.519167      21.9372        5497.1326    
       176   0             -2885.0057      62314.641      67151.2        66999.647      52793.075     -0.26234649    -0.035588831    11.09443       9.8194807      25.519167      21.9372        5497.1326    
       177   0             -2885.0057      62314.633      67151.198      66999.64       52793.061     -0.26320972    -0.043039336    11.090677      9.8194807      25.519167      21.9372        5497.1326    
       178   0             -2885.0057      62314.626      67151.189      66999.623      52793.066     -0.25858188    -0.041458963    11.093         9.8194807      25.519167      21.9372        5497.1326    
       179   0             -2885.0057      62314.624      67151.181      66999.633      52793.058     -0.26477458    -0.041930535    11.091891      9.8194807      25.519167      21.9372        5497.1326    
       180   0             -2885.0057      62314.625      67151.184      66999.631      52793.061     -0.25717977    -0.044748631    11.090038      9.8194807      25.519167      21.9372        5497.1326    
       181   0             -2885.0057      62314.627      67151.186      66999.63       52793.064     -0.25506826    -0.043598241    11.092024      9.8194807      25.519167      21.9372        5497.1326    
       182   0             -2885.0057      62314.629      67151.189      66999.634      52793.063     -0.25797729    -0.045077621    11.091504      9.8194807      25.519167      21.9372        5497.1326    
       183   0             -2885.0057      62314.632      67151.197      66999.632      52793.069     -0.25179221    -0.042259881    11.092315      9.8194807      25.519167      21.9372        5497.1326    
       184   0             -2885.0057      62314.637      67151.201      66999.64       52793.07      -0.25510206    -0.043433712    11.092274      9.8194807      25.519167      21.9372        5497.1326    
       185   0             -2885.0057      62314.641      67151.202      66999.646      52793.075     -0.25678717    -0.0425638      11.094475      9.8194807      25.519167      21.9372        5497.1326    
       186   0             -2885.0057      62314.645      67151.206      66999.649      52793.08      -0.25722118    -0.04288236     11.094226      9.8194807      25.519167      21.9372        5497.1326    
       187   0             -2885.0057      62314.649      67151.209      66999.654      52793.083     -0.26092144    -0.041318619    11.093878      9.8194807      25.519167      21.9372        5497.1326    
       188   0             -2885.0057      62314.65       67151.21       66999.653      52793.088     -0.2611308     -0.040219728    11.09435       9.8194807      25.519167      21.9372        5497.1326    
       189   0             -2885.0057      62314.65       67151.21       66999.654      52793.086     -0.26145418    -0.040697292    11.093908      9.8194807      25.519167      21.9372        5497.1326    
       190   0             -2885.0057      62314.649      67151.207      66999.653      52793.087     -0.26079923    -0.038344841    11.093898      9.8194807      25.519167      21.9372        5497.1326    
       191   0             -2885.0057      62314.648      67151.206      66999.653      52793.087     -0.2605505     -0.038078967    11.093252      9.8194807      25.519167      21.9372        5497.1326    
       192   0             -2885.0057      62314.648      67151.207      66999.652      52793.085     -0.25987961    -0.037859691    11.093083      9.8194807      25.519167      21.9372        5497.1326    
       193   0             -2885.0057      62314.648      67151.207      66999.651      52793.086     -0.26137169    -0.037017751    11.093201      9.8194807      25.519167      21.9372        5497.1326    
       194   0             -2885.0057      62314.648      67151.208      66999.653      52793.082     -0.26301672    -0.036285042    11.092649      9.8194807      25.519167      21.9372        5497.1326    
       195   0             -2885.0057      62314.647      67151.207      66999.651      52793.083     -0.26290967    -0.035189143    11.093194      9.8194807      25.519167      21.9372        5497.1326    
       196   0             -2885.0057      62314.646      67151.205      66999.651      52793.081     -0.26423356    -0.035761369    11.093795      9.8194807      25.519167      21.9372        5497.1326    
       197   0             -2885.0057      62314.644      67151.203      66999.649      52793.08      -0.26351847    -0.035061642    11.095082      9.8194807      25.519167      21.9372        5497.1326    
       198   0             -2885.0057      62314.642      67151.2        66999.647      52793.078     -0.26394183    -0.034787414    11.095499      9.8194807      25.519167      21.9372        5497.1326    
       199   0             -2885.0057      62314.641      67151.2        66999.647      52793.077     -0.26402423    -0.034181731    11.096665      9.8194807      25.519167      21.9372        5497.1326    
       200   0             -2885.0057      62314.643      67151.2        66999.648      52793.08      -0.26346436    -0.036411223    11.096716      9.8194807      25.519167      21.9372        5497.1326    
Loop time of 0.151668 on 1 procs for 100 steps with 432 atoms

61.8% CPU use with 1 MPI tasks x 1 OpenMP threads

Minimization stats:
  Stopping criterion = max iterations
  Energy initial, next-to-last, final = 
     -2552.85286058209  -2885.00567657408  -2885.00567657409
  Force two-norm initial, final = 260.86332 2.6717733e-06
  Force max component initial, final = 13.851815 2.5629156e-07
  Final line search alpha, max atom move = 1 2.5629156e-07
  Iterations, force evaluations = 100 166

MPI task timing breakdown:
Section |  min time  |  avg time  |  max time  |%varavg| %total
---------------------------------------------------------------
Pair    | 0.1284     | 0.1284     | 0.1284     |   0.0 | 84.66
Neigh   | 0          | 0          | 0          |   0.0 |  0.00
Comm    | 0.000643   | 0.000643   | 0.000643   |   0.0 |  0.42
Output  | 0.021258   | 0.021258   | 0.021258   |   0.0 | 14.02
Modify  | 0          | 0          | 0          |   0.0 |  0.00
Other   |            | 0.001371   |            |       |  0.90

Nlocal:            432 ave         432 max         432 min
Histogram: 1 0 0 0 0 0 0 0 0 0
Nghost:            973 ave         973 max         973 min
Histogram: 1 0 0 0 0 0 0 0 0 0
Neighs:              0 ave           0 max           0 min
Histogram: 1 0 0 0 0 0 0 0 0 0
FullNghs:         6624 ave        6624 max        6624 min
Histogram: 1 0 0 0 0 0 0 0 0 0

Total # of neighbors = 6624
Ave neighs/atom = 15.333333
Neighbor list builds = 0
Dangerous builds = 0

# Obtain new stress tensor

variable tmp equal pe
variable e1 equal ${tmp}
variable e1 equal -2885.00567657409
variable tmp equal press
variable p1 equal ${tmp}
variable p1 equal 62314.642817847
variable tmp equal pxx
variable pxx1 equal ${tmp}
variable pxx1 equal 67151.2002160083
variable tmp equal pyy
variable pyy1 equal ${tmp}
variable pyy1 equal 66999.6478277324
variable tmp equal pzz
variable pzz1 equal ${tmp}
variable pzz1 equal 52793.0804098004
variable tmp equal pxy
variable pxy1 equal ${tmp}
variable pxy1 equal -0.263464363146597
variable tmp equal pxz
variable pxz1 equal ${tmp}
variable pxz1 equal -0.0364112231270167
variable tmp equal pyz
variable pyz1 equal ${tmp}
variable pyz1 equal 11.0967164813461

# Compute elastic constant from pressure tensor

variable C1pos equal ${d1}
variable C1pos equal -7896160.21217406
variable C2pos equal ${d2}
variable C2pos equal -6205973.07220404
variable C3pos equal ${d3}
variable C3pos equal 51940141.2590772
variable C4pos equal ${d4}
variable C4pos equal 2212711.53177579
variable C5pos equal ${d5}
variable C5pos equal 3852220.09518477
variable C6pos equal ${d6}
variable C6pos equal -1983937.6234451

# Combine positive and negative

variable C1${dir} equal 0.5*(${C1neg}+${C1pos})
variable C16 equal 0.5*(${C1neg}+${C1pos})
variable C16 equal 0.5*(7896160.21195874+${C1pos})
variable C16 equal 0.5*(7896160.21195874+-7896160.21217406)
variable C2${dir} equal 0.5*(${C2neg}+${C2pos})
variable C26 equal 0.5*(${C2neg}+${C2pos})
variable C26 equal 0.5*(6205973.0717507+${C2pos})
variable C26 equal 0.5*(6205973.0717507+-6205973.07220404)
variable C3${dir} equal 0.5*(${C3neg}+${C3pos})
variable C36 equal 0.5*(${C3neg}+${C3pos})
variable C36 equal 0.5*(-51940141.2591527+${C3pos})
variable C36 equal 0.5*(-51940141.2591527+51940141.2590772)
variable C4${dir} equal 0.5*(${C4neg}+${C4pos})
variable C46 equal 0.5*(${C4neg}+${C4pos})
variable C46 equal 0.5*(-2212711.53208733+${C4pos})
variable C46 equal 0.5*(-2212711.53208733+2212711.53177579)
variable C5${dir} equal 0.5*(${C5neg}+${C5pos})
variable C56 equal 0.5*(${C5neg}+${C5pos})
variable C56 equal 0.5*(-3852212.44082744+${C5pos})
variable C56 equal 0.5*(-3852212.44082744+3852220.09518477)
variable C6${dir} equal 0.5*(${C6neg}+${C6pos})
variable C66 equal 0.5*(${C6neg}+${C6pos})
variable C66 equal 0.5*(1983989.86129205+${C6pos})
variable C66 equal 0.5*(1983989.86129205+-1983937.6234451)

# Delete dir to make sure it is not reused

variable dir delete

# Output final values

variable C11all equal ${C11}
variable C11all equal 123.677071544807
variable C22all equal ${C22}
variable C22all equal 123.83802998485
variable C33all equal ${C33}
variable C33all equal 118.844825852662

variable C12all equal 0.5*(${C12}+${C21})
variable C12all equal 0.5*(71.5755734248087+${C21})
variable C12all equal 0.5*(71.5755734248087+71.5439438498579)
variable C13all equal 0.5*(${C13}+${C31})
variable C13all equal 0.5*(74.2339737298898+${C31})
variable C13all equal 0.5*(74.2339737298898+72.7669331021607)
variable C23all equal 0.5*(${C23}+${C32})
variable C23all equal 0.5*(74.2347731553018+${C32})
variable C23all equal 0.5*(74.2347731553018+72.8034207522869)

variable C44all equal ${C44}
variable C44all equal 37.6111309551634
variable C55all equal ${C55}
variable C55all equal 37.595951280091
variable C66all equal ${C66}
variable C66all equal 26.1189234750345

variable C14all equal 0.5*(${C14}+${C41})
variable C14all equal 0.5*(3.85140574490651+${C41})
variable C14all equal 0.5*(3.85140574490651+3.82539923489094)
variable C15all equal 0.5*(${C15}+${C51})
variable C15all equal 0.5*(-0.000576629769057035+${C51})
variable C15all equal 0.5*(-0.000576629769057035+-0.04025953495875)
variable C16all equal 0.5*(${C16}+${C61})
variable C16all equal 0.5*(-0.000107659958302975+${C61})
variable C16all equal 0.5*(-0.000107659958302975+-0.00264886999502778)

variable C24all equal 0.5*(${C24}+${C42})
variable C24all equal 0.5*(-3.78638093965128+${C42})
variable C24all equal 0.5*(-3.78638093965128+-3.81904223002493)
variable C25all equal 0.5*(${C25}+${C52})
variable C25all equal 0.5*(-0.000647089909762144+${C52})
variable C25all equal 0.5*(-0.000647089909762144+-0.021903385175392)
variable C26all equal 0.5*(${C26}+${C62})
variable C26all equal 0.5*(-0.000226670410484076+${C62})
variable C26all equal 0.5*(-0.000226670410484076+-0.00163592502940446)

variable C34all equal 0.5*(${C34}+${C43})
variable C34all equal 0.5*(0.0497141480445862+${C43})
variable C34all equal 0.5*(0.0497141480445862+-0.000102404970675707)
variable C35all equal 0.5*(${C35}+${C53})
variable C35all equal 0.5*(-0.00100469961762428+${C53})
variable C35all equal 0.5*(-0.00100469961762428+-0.0172987699043006)
variable C36all equal 0.5*(${C36}+${C63})
variable C36all equal 0.5*(-3.7752091884613e-05+${C63})
variable C36all equal 0.5*(-3.7752091884613e-05+-0.00146903505083174)

variable C45all equal 0.5*(${C45}+${C54})
variable C45all equal 0.5*(0.000446019927039742+${C54})
variable C45all equal 0.5*(0.000446019927039742+0.0512338650878519)
variable C46all equal 0.5*(${C46}+${C64})
variable C46all equal 0.5*(-0.000155769987031817+${C64})
variable C46all equal 0.5*(-0.000155769987031817+0.00344843498896807)
variable C56all equal 0.5*(${C56}+${C65})
variable C56all equal 0.5*(3.82717866497114+${C65})
variable C56all equal 0.5*(3.82717866497114+3.8270416050218)

# Average moduli for cubic crystals

variable C11cubic equal (${C11all}+${C22all}+${C33all})/3.0
variable C11cubic equal (123.677071544807+${C22all}+${C33all})/3.0
variable C11cubic equal (123.677071544807+123.83802998485+${C33all})/3.0
variable C11cubic equal (123.677071544807+123.83802998485+118.844825852662)/3.0
variable C12cubic equal (${C12all}+${C13all}+${C23all})/3.0
variable C12cubic equal (71.5597586373333+${C13all}+${C23all})/3.0
variable C12cubic equal (71.5597586373333+73.5004534160253+${C23all})/3.0
variable C12cubic equal (71.5597586373333+73.5004534160253+73.5190969537943)/3.0
variable C44cubic equal (${C44all}+${C55all}+${C66all})/3.0
variable C44cubic equal (37.6111309551634+${C55all}+${C66all})/3.0
variable C44cubic equal (37.6111309551634+37.595951280091+${C66all})/3.0
variable C44cubic equal (37.6111309551634+37.595951280091+26.1189234750345)/3.0

variable bulkmodulus equal (${C11cubic}+2*${C12cubic})/3.0
variable bulkmodulus equal (122.119975794106+2*${C12cubic})/3.0
variable bulkmodulus equal (122.119975794106+2*72.859769669051)/3.0
variable shearmodulus1 equal ${C44cubic}
variable shearmodulus1 equal 33.775335236763
variable shearmodulus2 equal (${C11cubic}-${C12cubic})/2.0
variable shearmodulus2 equal (122.119975794106-${C12cubic})/2.0
variable shearmodulus2 equal (122.119975794106-72.859769669051)/2.0
variable poissonratio equal 1.0/(1.0+${C11cubic}/${C12cubic})
variable poissonratio equal 1.0/(1.0+122.119975794106/${C12cubic})
variable poissonratio equal 1.0/(1.0+122.119975794106/72.859769669051)

# For Stillinger-Weber silicon, the analytical results
# are known to be (E. R. Cowley, 1988):
#               C11 = 151.4 GPa
#               C12 = 76.4 GPa
#               C44 = 56.4 GPa

print "========================================="
=========================================
print "Components of the Elastic Constant Tensor"
Components of the Elastic Constant Tensor
print "========================================="
=========================================

print "Elastic Constant C11all = ${C11all} ${cunits}"
Elastic Constant C11all = 123.677071544807 GPa
print "Elastic Constant C22all = ${C22all} ${cunits}"
Elastic Constant C22all = 123.83802998485 GPa
print "Elastic Constant C33all = ${C33all} ${cunits}"
Elastic Constant C33all = 118.844825852662 GPa

print "Elastic Constant C12all = ${C12all} ${cunits}"
Elastic Constant C12all = 71.5597586373333 GPa
print "Elastic Constant C13all = ${C13all} ${cunits}"
Elastic Constant C13all = 73.5004534160253 GPa
print "Elastic Constant C23all = ${C23all} ${cunits}"
Elastic Constant C23all = 73.5190969537943 GPa

print "Elastic Constant C44all = ${C44all} ${cunits}"
Elastic Constant C44all = 37.6111309551634 GPa
print "Elastic Constant C55all = ${C55all} ${cunits}"
Elastic Constant C55all = 37.595951280091 GPa
print "Elastic Constant C66all = ${C66all} ${cunits}"
Elastic Constant C66all = 26.1189234750345 GPa

print "Elastic Constant C14all = ${C14all} ${cunits}"
Elastic Constant C14all = 3.83840248989873 GPa
print "Elastic Constant C15all = ${C15all} ${cunits}"
Elastic Constant C15all = -0.0204180823639035 GPa
print "Elastic Constant C16all = ${C16all} ${cunits}"
Elastic Constant C16all = -0.00137826497666538 GPa

print "Elastic Constant C24all = ${C24all} ${cunits}"
Elastic Constant C24all = -3.80271158483811 GPa
print "Elastic Constant C25all = ${C25all} ${cunits}"
Elastic Constant C25all = -0.0112752375425771 GPa
print "Elastic Constant C26all = ${C26all} ${cunits}"
Elastic Constant C26all = -0.000931297719944268 GPa

print "Elastic Constant C34all = ${C34all} ${cunits}"
Elastic Constant C34all = 0.0248058715369552 GPa
print "Elastic Constant C35all = ${C35all} ${cunits}"
Elastic Constant C35all = -0.00915173476096244 GPa
print "Elastic Constant C36all = ${C36all} ${cunits}"
Elastic Constant C36all = -0.000753393571358176 GPa

print "Elastic Constant C45all = ${C45all} ${cunits}"
Elastic Constant C45all = 0.0258399425074458 GPa
print "Elastic Constant C46all = ${C46all} ${cunits}"
Elastic Constant C46all = 0.00164633250096813 GPa
print "Elastic Constant C56all = ${C56all} ${cunits}"
Elastic Constant C56all = 3.82711013499647 GPa

print "========================================="
=========================================
print "Average properties for a cubic crystal"
Average properties for a cubic crystal
print "========================================="
=========================================

print "Bulk Modulus = ${bulkmodulus} ${cunits}"
Bulk Modulus = 89.2798383774027 GPa
print "Shear Modulus 1 = ${shearmodulus1} ${cunits}"
Shear Modulus 1 = 33.775335236763 GPa
print "Shear Modulus 2 = ${shearmodulus2} ${cunits}"
Shear Modulus 2 = 24.6301030625275 GPa
print "Poisson Ratio = ${poissonratio}"
Poisson Ratio = 0.373678658242061
Total wall time: 0:00:02
