ITEM: TIMESTEP
20
ITEM: NUMBER OF ATOMS
432
ITEM: BOX BOUNDS xy xz yz pp pp pp
0.0000000000000000e+00 9.8200000000000003e+00 0.0000000000000000e+00
0.0000000000000000e+00 2.5513108395489539e+01 0.0000000000000000e+00
0.0000000000000000e+00 2.1719999999999999e+01 0.0000000000000000e+00
ITEM: ATOMS id type x y z
3 1 1.1613 2.01143 3.61336
4 1 2.58741 -2.41574e-06 -0.00663714
7 2 2.18593 2.47113 2.47683
6 2 3.50209 1.12355 0.666837
19 1 3.6163 2.24076 1.80336
25 2 4.13197 3.59468 1.12989
27 2 4.64093 1.78107 2.9399
28 1 6.0713 2.01143 3.61336
29 1 7.49741 -2.41574e-06 -0.00663714
31 2 8.41209 1.12355 0.666837
32 2 7.09593 2.47113 2.47683
62 1 8.5263 2.24076 1.80336
67 2 9.04197 3.59468 1.12989
68 2 9.55093 1.78107 2.9399
1 2 1.04709 5.37573 0.666837
10 1 1.1613 6.49295 1.80336
18 2 2.18593 6.03325 2.9399
20 1 3.6163 6.26361 3.61336
21 1 5.04241 4.25218 -0.00663714
23 2 5.95709 5.37573 0.666837
24 2 4.64093 6.72331 2.47683
53 1 6.0713 6.49295 1.80336
61 2 7.09593 6.03325 2.9399
63 1 8.5263 6.26361 3.61336
64 1 9.95241 4.25218 -0.00663714
66 2 9.55093 6.72331 2.47683
11 1 1.1613 10.5158 3.61336
12 1 2.58741 8.50437 -0.00663714
16 2 1.67697 7.84686 1.12989
14 2 3.50209 9.62792 0.666837
44 1 3.6163 10.7451 1.80336
52 2 4.64093 10.2854 2.9399
54 1 6.0713 10.5158 3.61336
55 1 7.49741 8.50437 -0.00663714
57 2 8.41209 9.62792 0.666837
59 2 6.58697 7.84686 1.12989
91 1 8.5263 10.7451 1.80336
97 2 9.55093 10.2854 2.9399
8 2 1.04709 13.8801 0.666837
15 2 2.18593 10.9755 2.47683
43 2 2.18593 14.5376 2.9399
46 1 5.04241 12.7566 -0.00663714
48 2 5.95709 13.8801 0.666837
50 2 4.13197 12.099 1.12989
58 2 7.09593 10.9755 2.47683
90 2 7.09593 14.5376 2.9399
93 1 9.95241 12.7566 -0.00663714
96 2 9.04197 12.099 1.12989
35 1 1.1613 14.9973 1.80336
37 1 2.58741 17.0087 -0.00663714
41 2 1.67697 16.3512 1.12989
39 2 3.50209 18.1323 0.666837
45 1 3.6163 14.768 3.61336
49 2 4.64093 15.2277 2.47683
82 1 6.0713 14.9973 1.80336
84 1 7.49741 17.0087 -0.00663714
86 2 8.41209 18.1323 0.666837
88 2 6.58697 16.3512 1.12989
92 1 8.5263 14.768 3.61336
95 2 9.55093 15.2277 2.47683
36 1 1.1613 19.0202 3.61336
40 2 2.18593 19.4799 2.47683
73 1 3.6163 19.2495 1.80336
75 1 5.04241 21.2609 -0.00663714
79 2 4.13197 20.6034 1.12989
81 2 4.64093 18.7898 2.9399
83 1 6.0713 19.0202 3.61336
87 2 7.09593 19.4799 2.47683
102 1 8.5263 19.2495 1.80336
104 1 9.95241 21.2609 -0.00663714
107 2 9.04197 20.6034 1.12989
108 2 9.55093 18.7898 2.9399
33 2 1.04709 22.3845 0.666837
69 1 1.1613 23.5017 1.80336
70 2 1.67697 24.8556 1.12989
72 2 2.18593 23.042 2.9399
74 1 3.6163 23.2723 3.61336
77 2 5.95709 22.3845 0.666837
78 2 4.64093 23.732 2.47683
98 1 6.0713 23.5017 1.80336
99 2 6.58697 24.8556 1.12989
101 2 7.09593 23.042 2.9399
103 1 8.5263 23.2723 3.61336
106 2 9.55093 23.732 2.47683
2 2 1.04709 3.12863 4.7499
5 2 1.67699 0.657506 4.28683
112 1 2.58741 -2.41574e-06 5.42336
26 2 5.95709 3.12863 4.7499
114 2 3.50209 1.12355 6.09684
127 1 3.6163 2.24076 7.23336
133 2 4.13197 3.59468 6.55989
30 2 6.58699 0.657506 4.28683
137 1 7.49741 -2.41574e-06 5.42336
139 2 8.41209 1.12355 6.09684
170 1 8.5263 2.24076 7.23336
175 2 9.04197 3.59468 6.55989
109 2 1.04709 5.37573 6.09684
118 1 1.1613 6.49295 7.23336
22 2 4.13199 4.90969 4.28683
129 1 5.04241 4.25218 5.42336
131 2 5.95709 5.37573 6.09684
161 1 6.0713 6.49295 7.23336
65 2 9.04199 4.90969 4.28683
172 1 9.95241 4.25218 5.42336
13 2 1.67699 9.16188 4.28683
120 1 2.58741 8.50437 5.42336
124 2 1.67697 7.84686 6.55989
17 2 3.50209 7.38081 4.7499
122 2 3.50209 9.62792 6.09684
152 1 3.6163 10.7451 7.23336
56 2 6.58699 9.16188 4.28683
60 2 8.41209 7.38081 4.7499
163 1 7.49741 8.50437 5.42336
165 2 8.41209 9.62792 6.09684
167 2 6.58697 7.84686 6.55989
199 1 8.5263 10.7451 7.23336
9 2 1.04709 11.633 4.7499
116 2 1.04709 13.8801 6.09684
47 2 4.13199 13.4141 4.28683
51 2 5.95709 11.633 4.7499
154 1 5.04241 12.7566 5.42336
156 2 5.95709 13.8801 6.09684
158 2 4.13197 12.099 6.55989
94 2 9.04199 13.4141 4.28683
201 1 9.95241 12.7566 5.42336
204 2 9.04197 12.099 6.55989
38 2 1.67699 17.6662 4.28683
143 1 1.1613 14.9973 7.23336
145 1 2.58741 17.0087 5.42336
149 2 1.67697 16.3512 6.55989
42 2 3.50209 15.8852 4.7499
147 2 3.50209 18.1323 6.09684
190 1 6.0713 14.9973 7.23336
85 2 6.58699 17.6662 4.28683
89 2 8.41209 15.8852 4.7499
192 1 7.49741 17.0087 5.42336
194 2 8.41209 18.1323 6.09684
196 2 6.58697 16.3512 6.55989
34 2 1.04709 20.1374 4.7499
80 2 5.95709 20.1374 4.7499
181 1 3.6163 19.2495 7.23336
183 1 5.04241 21.2609 5.42336
187 2 4.13197 20.6034 6.55989
210 1 8.5263 19.2495 7.23336
212 1 9.95241 21.2609 5.42336
215 2 9.04197 20.6034 6.55989
141 2 1.04709 22.3845 6.09684
177 1 1.1613 23.5017 7.23336
178 2 1.67697 24.8556 6.55989
71 2 3.50209 24.3896 4.7499
76 2 4.13199 21.9184 4.28683
185 2 5.95709 22.3845 6.09684
206 1 6.0713 23.5017 7.23336
100 2 8.41209 24.3896 4.7499
105 2 9.04199 21.9184 4.28683
207 2 6.58697 24.8556 6.55989
110 2 1.04709 3.12863 10.1799
111 1 1.1613 2.01143 9.04336
113 2 1.67699 0.657506 9.71683
115 2 2.18593 2.47113 7.90683
134 2 5.95709 3.12863 10.1799
135 2 4.64093 1.78107 8.3699
136 1 6.0713 2.01143 9.04336
138 2 6.58699 0.657506 9.71683
140 2 7.09593 2.47113 7.90683
176 2 9.55093 1.78107 8.3699
126 2 2.18593 6.03325 8.3699
128 1 3.6163 6.26361 9.04336
130 2 4.13199 4.90969 9.71683
132 2 4.64093 6.72331 7.90683
169 2 7.09593 6.03325 8.3699
171 1 8.5263 6.26361 9.04336
173 2 9.04199 4.90969 9.71683
174 2 9.55093 6.72331 7.90683
119 1 1.1613 10.5158 9.04336
121 2 1.67699 9.16188 9.71683
125 2 3.50209 7.38081 10.1799
160 2 4.64093 10.2854 8.3699
162 1 6.0713 10.5158 9.04336
164 2 6.58699 9.16188 9.71683
168 2 8.41209 7.38081 10.1799
205 2 9.55093 10.2854 8.3699
117 2 1.04709 11.633 10.1799
123 2 2.18593 10.9755 7.90683
151 2 2.18593 14.5376 8.3699
155 2 4.13199 13.4141 9.71683
159 2 5.95709 11.633 10.1799
166 2 7.09593 10.9755 7.90683
198 2 7.09593 14.5376 8.3699
202 2 9.04199 13.4141 9.71683
146 2 1.67699 17.6662 9.71683
150 2 3.50209 15.8852 10.1799
153 1 3.6163 14.768 9.04336
157 2 4.64093 15.2277 7.90683
193 2 6.58699 17.6662 9.71683
197 2 8.41209 15.8852 10.1799
200 1 8.5263 14.768 9.04336
203 2 9.55093 15.2277 7.90683
142 2 1.04709 20.1374 10.1799
144 1 1.1613 19.0202 9.04336
148 2 2.18593 19.4799 7.90683
188 2 5.95709 20.1374 10.1799
189 2 4.64093 18.7898 8.3699
191 1 6.0713 19.0202 9.04336
195 2 7.09593 19.4799 7.90683
216 2 9.55093 18.7898 8.3699
180 2 2.18593 23.042 8.3699
179 2 3.50209 24.3896 10.1799
182 1 3.6163 23.2723 9.04336
184 2 4.13199 21.9184 9.71683
186 2 4.64093 23.732 7.90683
208 2 8.41209 24.3896 10.1799
209 2 7.09593 23.042 8.3699
211 1 8.5263 23.2723 9.04336
213 2 9.04199 21.9184 9.71683
214 2 9.55093 23.732 7.90683
219 1 1.1613 2.01143 14.4734
220 1 2.58741 -2.41574e-06 10.8534
223 2 2.18593 2.47113 13.3368
222 2 3.50209 1.12355 11.5268
235 1 3.6163 2.24076 12.6634
241 2 4.13197 3.59468 11.9899
243 2 4.64093 1.78107 13.7999
244 1 6.0713 2.01143 14.4734
245 1 7.49741 -2.41574e-06 10.8534
247 2 8.41209 1.12355 11.5268
248 2 7.09593 2.47113 13.3368
278 1 8.5263 2.24076 12.6634
283 2 9.04197 3.59468 11.9899
284 2 9.55093 1.78107 13.7999
217 2 1.04709 5.37573 11.5268
226 1 1.1613 6.49295 12.6634
234 2 2.18593 6.03325 13.7999
236 1 3.6163 6.26361 14.4734
237 1 5.04241 4.25218 10.8534
239 2 5.95709 5.37573 11.5268
240 2 4.64093 6.72331 13.3368
269 1 6.0713 6.49295 12.6634
277 2 7.09593 6.03325 13.7999
279 1 8.5263 6.26361 14.4734
280 1 9.95241 4.25218 10.8534
282 2 9.55093 6.72331 13.3368
227 1 1.1613 10.5158 14.4734
228 1 2.58741 8.50437 10.8534
232 2 1.67697 7.84686 11.9899
230 2 3.50209 9.62792 11.5268
260 1 3.6163 10.7451 12.6634
268 2 4.64093 10.2854 13.7999
270 1 6.0713 10.5158 14.4734
271 1 7.49741 8.50437 10.8534
273 2 8.41209 9.62792 11.5268
275 2 6.58697 7.84686 11.9899
307 1 8.5263 10.7451 12.6634
313 2 9.55093 10.2854 13.7999
224 2 1.04709 13.8801 11.5268
231 2 2.18593 10.9755 13.3368
259 2 2.18593 14.5376 13.7999
262 1 5.04241 12.7566 10.8534
264 2 5.95709 13.8801 11.5268
266 2 4.13197 12.099 11.9899
274 2 7.09593 10.9755 13.3368
306 2 7.09593 14.5376 13.7999
309 1 9.95241 12.7566 10.8534
312 2 9.04197 12.099 11.9899
251 1 1.1613 14.9973 12.6634
253 1 2.58741 17.0087 10.8534
257 2 1.67697 16.3512 11.9899
255 2 3.50209 18.1323 11.5268
261 1 3.6163 14.768 14.4734
265 2 4.64093 15.2277 13.3368
298 1 6.0713 14.9973 12.6634
300 1 7.49741 17.0087 10.8534
302 2 8.41209 18.1323 11.5268
304 2 6.58697 16.3512 11.9899
308 1 8.5263 14.768 14.4734
311 2 9.55093 15.2277 13.3368
252 1 1.1613 19.0202 14.4734
256 2 2.18593 19.4799 13.3368
289 1 3.6163 19.2495 12.6634
291 1 5.04241 21.2609 10.8534
295 2 4.13197 20.6034 11.9899
297 2 4.64093 18.7898 13.7999
299 1 6.0713 19.0202 14.4734
303 2 7.09593 19.4799 13.3368
318 1 8.5263 19.2495 12.6634
320 1 9.95241 21.2609 10.8534
323 2 9.04197 20.6034 11.9899
324 2 9.55093 18.7898 13.7999
249 2 1.04709 22.3845 11.5268
285 1 1.1613 23.5017 12.6634
286 2 1.67697 24.8556 11.9899
288 2 2.18593 23.042 13.7999
290 1 3.6163 23.2723 14.4734
293 2 5.95709 22.3845 11.5268
294 2 4.64093 23.732 13.3368
314 1 6.0713 23.5017 12.6634
315 2 6.58697 24.8556 11.9899
317 2 7.09593 23.042 13.7999
319 1 8.5263 23.2723 14.4734
322 2 9.55093 23.732 13.3368
218 2 1.04709 3.12863 15.6099
221 2 1.67699 0.657506 15.1468
328 1 2.58741 -2.41574e-06 16.2834
242 2 5.95709 3.12863 15.6099
330 2 3.50209 1.12355 16.9568
343 1 3.6163 2.24076 18.0934
349 2 4.13197 3.59468 17.4199
246 2 6.58699 0.657506 15.1468
353 1 7.49741 -2.41574e-06 16.2834
355 2 8.41209 1.12355 16.9568
386 1 8.5263 2.24076 18.0934
391 2 9.04197 3.59468 17.4199
325 2 1.04709 5.37573 16.9568
334 1 1.1613 6.49295 18.0934
238 2 4.13199 4.90969 15.1468
345 1 5.04241 4.25218 16.2834
347 2 5.95709 5.37573 16.9568
377 1 6.0713 6.49295 18.0934
281 2 9.04199 4.90969 15.1468
388 1 9.95241 4.25218 16.2834
229 2 1.67699 9.16188 15.1468
336 1 2.58741 8.50437 16.2834
340 2 1.67697 7.84686 17.4199
233 2 3.50209 7.38081 15.6099
338 2 3.50209 9.62792 16.9568
368 1 3.6163 10.7451 18.0934
272 2 6.58699 9.16188 15.1468
276 2 8.41209 7.38081 15.6099
379 1 7.49741 8.50437 16.2834
381 2 8.41209 9.62792 16.9568
383 2 6.58697 7.84686 17.4199
415 1 8.5263 10.7451 18.0934
225 2 1.04709 11.633 15.6099
332 2 1.04709 13.8801 16.9568
263 2 4.13199 13.4141 15.1468
267 2 5.95709 11.633 15.6099
370 1 5.04241 12.7566 16.2834
372 2 5.95709 13.8801 16.9568
374 2 4.13197 12.099 17.4199
310 2 9.04199 13.4141 15.1468
417 1 9.95241 12.7566 16.2834
420 2 9.04197 12.099 17.4199
254 2 1.67699 17.6662 15.1468
359 1 1.1613 14.9973 18.0934
361 1 2.58741 17.0087 16.2834
365 2 1.67697 16.3512 17.4199
258 2 3.50209 15.8852 15.6099
363 2 3.50209 18.1323 16.9568
406 1 6.0713 14.9973 18.0934
301 2 6.58699 17.6662 15.1468
305 2 8.41209 15.8852 15.6099
408 1 7.49741 17.0087 16.2834
410 2 8.41209 18.1323 16.9568
412 2 6.58697 16.3512 17.4199
250 2 1.04709 20.1374 15.6099
296 2 5.95709 20.1374 15.6099
397 1 3.6163 19.2495 18.0934
399 1 5.04241 21.2609 16.2834
403 2 4.13197 20.6034 17.4199
426 1 8.5263 19.2495 18.0934
428 1 9.95241 21.2609 16.2834
431 2 9.04197 20.6034 17.4199
357 2 1.04709 22.3845 16.9568
393 1 1.1613 23.5017 18.0934
394 2 1.67697 24.8556 17.4199
287 2 3.50209 24.3896 15.6099
292 2 4.13199 21.9184 15.1468
401 2 5.95709 22.3845 16.9568
422 1 6.0713 23.5017 18.0934
316 2 8.41209 24.3896 15.6099
321 2 9.04199 21.9184 15.1468
423 2 6.58697 24.8556 17.4199
326 2 1.04709 3.12863 21.0399
327 1 1.1613 2.01143 19.9034
329 2 1.67699 0.657506 20.5768
331 2 2.18593 2.47113 18.7668
350 2 5.95709 3.12863 21.0399
351 2 4.64093 1.78107 19.2299
352 1 6.0713 2.01143 19.9034
354 2 6.58699 0.657506 20.5768
356 2 7.09593 2.47113 18.7668
392 2 9.55093 1.78107 19.2299
342 2 2.18593 6.03325 19.2299
344 1 3.6163 6.26361 19.9034
346 2 4.13199 4.90969 20.5768
348 2 4.64093 6.72331 18.7668
385 2 7.09593 6.03325 19.2299
387 1 8.5263 6.26361 19.9034
389 2 9.04199 4.90969 20.5768
390 2 9.55093 6.72331 18.7668
335 1 1.1613 10.5158 19.9034
337 2 1.67699 9.16188 20.5768
341 2 3.50209 7.38081 21.0399
376 2 4.64093 10.2854 19.2299
378 1 6.0713 10.5158 19.9034
380 2 6.58699 9.16188 20.5768
384 2 8.41209 7.38081 21.0399
421 2 9.55093 10.2854 19.2299
333 2 1.04709 11.633 21.0399
339 2 2.18593 10.9755 18.7668
367 2 2.18593 14.5376 19.2299
371 2 4.13199 13.4141 20.5768
375 2 5.95709 11.633 21.0399
382 2 7.09593 10.9755 18.7668
414 2 7.09593 14.5376 19.2299
418 2 9.04199 13.4141 20.5768
362 2 1.67699 17.6662 20.5768
366 2 3.50209 15.8852 21.0399
369 1 3.6163 14.768 19.9034
373 2 4.64093 15.2277 18.7668
409 2 6.58699 17.6662 20.5768
413 2 8.41209 15.8852 21.0399
416 1 8.5263 14.768 19.9034
419 2 9.55093 15.2277 18.7668
358 2 1.04709 20.1374 21.0399
360 1 1.1613 19.0202 19.9034
364 2 2.18593 19.4799 18.7668
404 2 5.95709 20.1374 21.0399
405 2 4.64093 18.7898 19.2299
407 1 6.0713 19.0202 19.9034
411 2 7.09593 19.4799 18.7668
432 2 9.55093 18.7898 19.2299
396 2 2.18593 23.042 19.2299
395 2 3.50209 24.3896 21.0399
398 1 3.6163 23.2723 19.9034
400 2 4.13199 21.9184 20.5768
402 2 4.64093 23.732 18.7668
424 2 8.41209 24.3896 21.0399
425 2 7.09593 23.042 19.2299
427 1 8.5263 23.2723 19.9034
429 2 9.04199 21.9184 20.5768
430 2 9.55093 23.732 18.7668
