LAMMPS data file via write_data, version 22 Jul 2025, timestep = 10020, units = metal

432 atoms
2 atom types

0.0051837277020396755 9.814816272297978 xlo xhi
0.013467719628899033 25.499640675860775 ylo yhi
0.011465434387812223 21.708534565612624 zlo zhi
0 0 0 xy xz yz

Masses

1 28.0855
2 15.999

Atoms # atomic

3 1 1.16418914676444 2.0209250011740334 3.621015108937318 0 0 0
7 2 2.1855207348009142 2.4825525316705956 2.4832712844837057 0 0 0
6 2 3.5057083158594717 1.1384018719635012 0.6751741187454343 0 0 0
19 1 3.6165977897833828 2.253706418217483 1.8129222506773985 0 0 0
25 2 4.133960971252032 3.6074805491089013 1.1425899403280138 0 0 0
27 2 4.637927317722874 1.7920802158838967 2.9506655659010907 0 0 0
28 1 6.069006222306074 2.020925481148589 3.621013383819666 0 0 0
31 2 8.410528044360326 1.1383953000400955 0.6751814346767685 0 0 0
32 2 7.090338224559338 2.4825480016350236 2.483268004993625 0 0 0
62 1 8.521418315591255 2.25370193936472 1.81292507153083 0 0 0
67 2 9.038774942993482 3.6074741635833973 1.1425817837772942 0 0 0
68 2 9.542745941793125 1.792080317183892 2.9506719248162416 0 0 0
1 2 1.0533052332066606 5.386094604636069 0.6751775669694813 0 0 0
10 1 1.1641867467168872 6.501400914974252 1.8129258047452301 0 0 0
18 2 2.185516129820444 6.0397758939097885 2.9506712652293925 0 0 0
20 1 3.6165949223650857 6.26861972490156 3.6210160291307094 0 0 0
23 2 5.958125135716739 5.386097574320498 0.6751707137055164 0 0 0
24 2 4.637927128173076 6.730247479002981 2.4832679956843684 0 0 0
53 1 6.069009366562569 6.501400787900142 1.812926767131226 0 0 0
61 2 7.090333212668119 6.039773676454933 2.9506694819620813 0 0 0
63 1 8.52141456235682 6.268618947483365 3.62101030656645 0 0 0
66 2 9.542743605363858 6.73024634754309 2.4832626296734923 0 0 0
11 1 1.164190967874682 10.516318035021952 3.621013729565279 0 0 0
16 2 1.6815438292647986 7.855177219494706 1.1425888340195052 0 0 0
14 2 3.5057147432623204 9.633785471673376 0.6751762044206613 0 0 0
44 1 3.616600903708251 10.749093489002796 1.8129227936428876 0 0 0
52 2 4.6379240136340405 10.287470254699802 2.950671752868603 0 0 0
54 1 6.069005168814729 10.516318825271778 3.621013356849861 0 0 0
57 2 8.410529271520378 9.633795542406457 0.6751766832134808 0 0 0
59 2 6.586366780432319 7.8551749231067625 1.1425847835528253 0 0 0
91 1 8.52141276938406 10.749101214715267 1.812924667911853 0 0 0
97 2 9.542738483336299 10.287480937928143 2.9506743802249082 0 0 0
8 2 1.053300726735457 13.881489204068668 0.6751749242336285 0 0 0
15 2 2.1855225508407656 10.977938232749525 2.4832653479697244 0 0 0
43 2 2.1855200508934725 14.535165028260112 2.9506685281934786 0 0 0
48 2 5.958122208807106 13.881490215332784 0.6751712930754206 0 0 0
50 2 4.133959248357698 12.10286730232989 1.1425849492069735 0 0 0
58 2 7.090329565492791 10.977948112454964 2.4832686764822958 0 0 0
90 2 7.0903329881750725 14.535169486271464 2.950666799147462 0 0 0
96 2 9.03877628170899 12.102872372872524 1.14258867947559 0 0 0
35 1 1.164190827136217 14.996791600414463 1.8129253130415646 0 0 0
41 2 1.6815502332179293 16.350564835619828 1.1425875232576659 0 0 0
39 2 3.5057128588472524 18.129180252268963 0.6751782934694616 0 0 0
45 1 3.6166001985005343 14.764009558261524 3.6210112441887667 0 0 0
49 2 4.637925962644958 15.225634688681865 2.483260350552672 0 0 0
82 1 6.06900754389061 14.996794041773983 1.8129198602753676 0 0 0
86 2 8.41052125344933 18.12917943353008 0.6751798328082368 0 0 0
88 2 6.586362641325804 16.35056727347745 1.1425811993990107 0 0 0
92 1 8.521412936759873 14.764011294196385 3.6210105506192902 0 0 0
95 2 9.542741221366464 15.225632250780547 2.483265743306288 0 0 0
36 1 1.1641881248018482 19.0117061751227 3.6210131127853864 0 0 0
40 2 2.1855176505839484 19.47332942611173 2.4832682407032705 0 0 0
73 1 3.6165980818445607 19.244485462481013 1.812931180166416 0 0 0
79 2 4.133956747212041 20.598258442979926 1.142589896356596 0 0 0
81 2 4.637926769874038 18.782862250302333 2.950672672554718 0 0 0
83 1 6.069006392562335 19.011705829996945 3.621012448103612 0 0 0
87 2 7.0903361696622795 19.473331511682666 2.4832687112119203 0 0 0
102 1 8.521412307370118 19.244483037322734 1.8129297880839537 0 0 0
107 2 9.038773061555892 20.598253606130974 1.1425879758302364 0 0 0
108 2 9.542740100355143 18.782859476720624 2.9506713372861415 0 0 0
33 2 1.0533067700936494 22.376871824585752 0.6751838732824951 0 0 0
69 1 1.1641887790935082 23.492179664310054 1.8129332822881077 0 0 0
70 2 1.6815526995353562 24.845952840750783 1.1425944996922224 0 0 0
72 2 2.1855165967985073 23.03056011773445 2.950678185719479 0 0 0
74 1 3.6165977482363645 23.259403633693026 3.6210157955512683 0 0 0
77 2 5.958116317546608 22.37687613951705 0.6751783106140012 0 0 0
78 2 4.637924140056164 23.721025351058117 2.4832703039136885 0 0 0
98 1 6.069002393397787 23.492183560623644 1.8129299676821606 0 0 0
99 2 6.586363510832791 24.84595493614982 1.1425916503441513 0 0 0
101 2 7.090330484028938 23.03055995609498 2.9506700003730364 0 0 0
103 1 8.521411834091179 23.25940260742528 3.6210134348818745 0 0 0
106 2 9.542739824191983 23.721022710200472 2.4832682808675863 0 0 0
2 2 1.0533034063307223 3.1362302262284496 4.758761989654201 0 0 0
5 2 1.6815405182400809 0.6671493790706899 4.291358089200528 0 0 0
26 2 5.958114995805041 3.136234359794464 4.758758318840816 0 0 0
114 2 3.5057110245710494 1.1384060003313587 6.0994383666123095 0 0 0
127 1 3.6166007341952717 2.2537097443919993 7.237191981491183 0 0 0
133 2 4.133955906798189 3.607485271860814 6.5668506050810524 0 0 0
30 2 6.58635468918945 0.6671535261325738 4.291354695723114 0 0 0
139 2 8.410522177811359 1.1384093798192354 6.099434951613688 0 0 0
170 1 8.52141089606713 2.2537113603077468 7.237192206199376 0 0 0
175 2 9.038773330538534 3.607483669560374 6.56685557954632 0 0 0
109 2 1.05329740108537 5.38609793291489 6.099439420527592 0 0 0
118 1 1.1641840176299343 6.501399975290182 7.237190415431962 0 0 0
172 1 0.1395793634287821 4.261163892292482 5.42910260918964 1 0 0
22 2 4.13394779237363 4.914847752089616 4.291357483282102 0 0 0
129 1 5.044393151275931 4.261165535579767 5.429097517528727 0 0 0
131 2 5.958112449389571 5.386100408896293 6.09943961018683 0 0 0
161 1 6.0690045366835434 6.50140231737662 7.237188519489409 0 0 0
65 2 9.038771718754427 4.914847039032316 4.291349232199304 0 0 0
13 2 1.6815443285898222 9.162547044454753 4.291357399453944 0 0 0
120 1 2.59198689632457 8.508855963394305 5.429108653158623 0 0 0
124 2 1.6815426046781616 7.855171897758724 6.566849748359591 0 0 0
17 2 3.5057072596234145 7.383926831330853 4.7587645753971355 0 0 0
122 2 3.5057136518799226 9.63378630705144 6.0994518209401045 0 0 0
152 1 3.616596346100848 10.749096981002417 7.237195650284372 0 0 0
56 2 6.586364167781279 9.162544834979272 4.291354558041134 0 0 0
60 2 8.410528593984848 7.383927192039261 4.758757831700918 0 0 0
163 1 7.496806118838458 8.50885820321317 5.429105197434088 0 0 0
165 2 8.410531523080348 9.63379083175503 6.0994415191643245 0 0 0
167 2 6.586365990669065 7.85517502605654 6.566853413962852 0 0 0
199 1 8.521420435768409 10.749098537800968 7.2371891105646124 0 0 0
9 2 1.0533085197449288 11.631629458750064 4.758754748899956 0 0 0
116 2 1.053305443799968 13.881491197531622 6.099433479659942 0 0 0
201 1 0.13958331323205198 12.756558586018093 5.429098988241132 1 0 0
47 2 4.133955485265708 13.410240584899011 4.291361204555887 0 0 0
51 2 5.958115065917213 11.631623080957938 4.758760034559033 0 0 0
154 1 5.04439545530541 12.756553223199493 5.429108555399359 0 0 0
156 2 5.958121675030553 13.881484244143094 6.099446399398843 0 0 0
158 2 4.1339521003676705 12.102867984920495 6.566852020716539 0 0 0
94 2 9.038760415835993 13.410239351548602 4.29136065686116 0 0 0
204 2 9.03878655738347 12.102868131238269 6.566852553608611 0 0 0
38 2 1.6815437442735637 17.657935385435536 4.29135682500069 0 0 0
143 1 1.1641899083930614 14.996795910666362 7.237190742440787 0 0 0
145 1 2.5919897508598138 17.004254169553374 5.429100123054418 0 0 0
149 2 1.6815522182790779 16.350568550352538 6.566851083219659 0 0 0
42 2 3.5057138471833804 15.879322759617756 4.7587543907131815 0 0 0
147 2 3.5057095875780355 18.12918736566418 6.0994400004024225 0 0 0
190 1 6.069004638080439 14.99679233811344 7.237190508747389 0 0 0
85 2 6.58635915898537 17.65793212120302 4.291358572690456 0 0 0
89 2 8.410530933588534 15.87931891675399 4.758756938689138 0 0 0
192 1 7.49680436660021 17.004247565317844 5.429106130204829 0 0 0
194 2 8.410528855410298 18.12917796939579 6.09944596284795 0 0 0
196 2 6.586361342064275 16.350565043358028 6.566847140502961 0 0 0
34 2 1.0532934621479708 20.12701279064741 4.758761368631916 0 0 0
212 1 0.13957187429552254 21.251943937248484 5.429103875998044 1 0 0
80 2 5.958120414976757 20.12701584111012 4.758760073677089 0 0 0
181 1 3.616596558251509 19.24448986267657 7.237192823307782 0 0 0
183 1 5.044395077671258 21.25194757944781 5.429105372764557 0 0 0
187 2 4.133957057925182 20.598262540714824 6.566852222300541 0 0 0
210 1 8.521410638668756 19.244485322597512 7.237193351727532 0 0 0
215 2 9.038758253605236 20.59826026418372 6.566848339377201 0 0 0
112 1 2.591990879430609 0.013469557234693952 5.429102124827404 0 0 0
141 2 1.0532991264080522 22.376872065527543 6.099447076193923 0 0 0
177 1 1.1641925476112231 23.492179851771017 7.237197311970988 0 0 0
178 2 1.6815554242928825 24.845953944009825 6.566853434482755 0 0 0
71 2 3.5057172366464906 24.37471918167979 4.758753595811902 0 0 0
76 2 4.133954019551765 21.905631233304813 4.291356871465622 0 0 0
185 2 5.958118153517005 22.37688724558463 6.099441126722409 0 0 0
206 1 6.069011292129343 23.492189288325612 7.237191753204127 0 0 0
137 1 7.496800651322522 0.013470174216301232 5.4290991576272924 0 0 0
100 2 8.410522618153937 24.374708393111682 4.758757327867596 0 0 0
105 2 9.038768229941857 21.905630621709786 4.291353136346513 0 0 0
207 2 6.586368792903818 24.84596465745635 6.566855736428714 0 0 0
110 2 1.0532990596754601 3.13623595554296 10.183021340510917 0 0 0
111 1 1.16418843897252 2.020922745257264 9.045275843995968 0 0 0
113 2 1.6815448700362028 0.6671504321521434 9.715619721216454 0 0 0
115 2 2.1855211800334233 2.48254599599627 7.907533852023689 0 0 0
134 2 5.958113286209561 3.1362425677258674 10.183023599079368 0 0 0
135 2 4.637927029080883 1.7920791397172808 8.374936292381243 0 0 0
136 1 6.069006167747936 2.0209273265702863 9.04528315890766 0 0 0
138 2 6.586363974282452 0.6671577345406232 9.715627621352818 0 0 0
140 2 7.090331753320697 2.482555462061639 7.9075356208268825 0 0 0
176 2 9.542742040660462 1.7920785422801662 8.37493412810853 0 0 0
126 2 2.185515052484675 6.03977661574278 8.374933629801088 0 0 0
280 1 0.13957396900180855 4.261165316651673 10.85337231339677 1 0 0
128 1 3.616592595078427 6.268617072741384 9.045277637683922 0 0 0
130 2 4.133943588267206 4.914848244486817 9.715628526880279 0 0 0
132 2 4.637921721440288 6.730240062409234 7.907532122247491 0 0 0
237 1 5.044388132275632 4.261167993720463 10.853374212604496 0 0 0
169 2 7.0903290372046195 6.039775687311074 8.374934214466737 0 0 0
171 1 8.521404899996618 6.268613949618021 9.045280882461409 0 0 0
173 2 9.038758785250748 4.914845546998919 9.715629518951209 0 0 0
174 2 9.542738054205676 6.73023574692407 7.907532576090956 0 0 0
119 1 1.1641914459555338 10.516315108366735 9.045277627860566 0 0 0
121 2 1.68154538990846 9.162547391952199 9.715625665630263 0 0 0
228 1 2.591987577025537 8.508859664570833 10.853374150782972 0 0 0
125 2 3.505708074317204 7.383930171985185 10.18302438918471 0 0 0
160 2 4.637925751940492 10.287477017527397 8.374945432253805 0 0 0
162 1 6.069012263044288 10.5163156357815 9.045283672620037 0 0 0
164 2 6.586363090526588 9.16254704346278 9.715630573529348 0 0 0
168 2 8.410522953440537 7.3839319696791845 10.183020214666323 0 0 0
205 2 9.54274440522734 10.287470613297788 8.374932611881063 0 0 0
271 1 7.496807642329595 8.508861854231832 10.85336916058534 0 0 0
117 2 1.0533039780320732 11.631628211424607 10.18302324764635 0 0 0
123 2 2.185515667945767 10.9779308833013 7.907528285078717 0 0 0
151 2 2.1855195080107723 14.535168176529778 8.3749333784878 0 0 0
309 1 0.13957950407967404 12.75655726194258 10.853371699644338 1 0 0
155 2 4.1339577912693235 13.410238473729448 9.715623040699581 0 0 0
159 2 5.958127920490505 11.631630244241295 10.183022448184193 0 0 0
262 1 5.044398316632434 12.7565542346601 10.853368854724508 0 0 0
166 2 7.090338821596032 10.977940298935065 7.907533560612843 0 0 0
198 2 7.090332178187144 14.535169237145674 8.374934712456914 0 0 0
202 2 9.038768083714405 13.410242814275527 9.715626321404667 0 0 0
146 2 1.6815438855703249 17.657929814657745 9.715620216628787 0 0 0
253 1 2.591988964977401 17.00425029083745 10.853369162759744 0 0 0
150 2 3.50571686527433 15.879320794440662 10.183020201387869 0 0 0
153 1 3.61660293820997 14.764010194953253 9.045277315072164 0 0 0
157 2 4.63792649374909 15.225631949780244 7.9075285324374125 0 0 0
193 2 6.586352390300105 17.657930870267432 9.715636461966264 0 0 0
197 2 8.410527468787855 15.879320486431412 10.183022238662973 0 0 0
200 1 8.521411877198492 14.764010081979322 9.045275845557525 0 0 0
203 2 9.542745157059684 15.225635788579707 7.907533916291978 0 0 0
300 1 7.496804715940647 17.004246053085527 10.853374917452676 0 0 0
142 2 1.0533028572603826 20.127017567006767 10.18302726562306 0 0 0
144 1 1.1641840144487081 19.011704860497556 9.045280559815366 0 0 0
148 2 2.185513661694384 19.473328669165312 7.907530073115591 0 0 0
320 1 0.1395831447761792 21.251947230261656 10.853372801508263 1 0 0
188 2 5.958125978431811 20.12701718593015 10.183027710229148 0 0 0
189 2 4.637926947177429 18.78286099182806 8.374939482242869 0 0 0
191 1 6.0690046636022155 19.011704117992366 9.045284819671588 0 0 0
291 1 5.0444007776122195 21.25194573305804 10.85337753893033 0 0 0
195 2 7.090330468741402 19.473316379569372 7.907530853140853 0 0 0
216 2 9.5427340904679 18.78286320974121 8.374946579458587 0 0 0
180 2 2.185524425982157 23.030554724317255 8.37494068587984 0 0 0
220 1 2.5919886575877427 0.013472059869987485 10.853368464633446 0 0 0
179 2 3.5057187413568514 24.37471510198385 10.183031038581099 0 0 0
182 1 3.6166048381877345 23.25940351514542 9.045282914012079 0 0 0
184 2 4.1339618178816755 21.905630734723967 9.715628391061141 0 0 0
186 2 4.6379341475330955 23.721029240481194 7.907537580719341 0 0 0
208 2 8.41052943119287 24.374710745245896 10.183028877742219 0 0 0
209 2 7.090342146760463 23.03055926334434 8.374935094492866 0 0 0
211 1 8.521417726792311 23.259402664360188 9.045281694775264 0 0 0
213 2 9.038766973808583 21.905630946795096 9.715629555257808 0 0 0
214 2 9.542748702130746 23.721028467107644 7.907533807702761 0 0 0
245 1 7.4968092421980534 0.013472278893137159 10.853374236471197 0 0 0
219 1 1.164185392233823 2.0209281030362374 14.46954559414018 0 0 0
223 2 2.1855129060169673 2.482550080480293 13.33180022046036 0 0 0
222 2 3.505702421329857 1.1384105696745246 11.523709747702757 0 0 0
235 1 3.6165936381987853 2.2537129384099512 12.661461376573676 0 0 0
241 2 4.133949353090351 3.6074849408113394 11.99112192150785 0 0 0
243 2 4.637920196344711 1.7920845272104766 13.799202227594815 0 0 0
244 1 6.069000133679591 2.0209164423291757 14.469548485665426 0 0 0
247 2 8.41053014398985 1.1383995362075157 11.52372034815505 0 0 0
248 2 7.090332022932225 2.482540393835894 13.331805153976521 0 0 0
278 1 8.52141517304918 2.253706204529287 12.661464415108533 0 0 0
283 2 9.03877368948309 3.607479947467859 11.991124690436113 0 0 0
284 2 9.542739946125508 1.7920830986178062 13.799211401889107 0 0 0
217 2 1.0533079386842679 5.386094031928625 11.5237113978742 0 0 0
226 1 1.1641901220032078 6.501397552920319 12.661461414556086 0 0 0
234 2 2.1855142971795103 6.039774917280414 13.799211735801505 0 0 0
236 1 3.616597762625046 6.268621128669394 14.469549554990364 0 0 0
239 2 5.9581132031022195 5.386099693632165 11.523714901540279 0 0 0
240 2 4.63792184050901 6.730247166859522 13.33180170166481 0 0 0
269 1 6.069004135401451 6.501406913623969 12.661462241272853 0 0 0
277 2 7.090331437286709 6.039772687447101 13.799203926100192 0 0 0
279 1 8.521410038710307 6.268614671421673 14.469545310128948 0 0 0
282 2 9.542742510433596 6.7302323424078 13.33179669104627 0 0 0
227 1 1.1641927235530898 10.516313296980849 14.469545536481911 0 0 0
232 2 1.6815449025816531 7.855173217293587 11.991121610700647 0 0 0
230 2 3.505713238282994 9.63378371705254 11.523716576676767 0 0 0
260 1 3.616600661846122 10.749095129269781 12.661458829460635 0 0 0
268 2 4.637929299817275 10.287473177939683 13.799202322163273 0 0 0
270 1 6.0690066254651125 10.516309720079823 14.469545319002783 0 0 0
273 2 8.410534776001809 9.633791248464822 11.5237126388903 0 0 0
275 2 6.586364778046918 7.855179105951809 11.991122466726596 0 0 0
307 1 8.521421701343586 10.74909698715553 12.661460977649213 0 0 0
313 2 9.542747176180255 10.287471822712288 13.799207376007535 0 0 0
224 2 1.0533057450239365 13.881483000785613 11.523709019008866 0 0 0
231 2 2.1855208290977877 10.977935738421376 13.331800104822586 0 0 0
259 2 2.18551948567261 14.535172712426252 13.7991977820725 0 0 0
264 2 5.9581178905440915 13.881489381935376 11.52370646979554 0 0 0
266 2 4.133954225827675 12.102866134964888 11.991112506311252 0 0 0
274 2 7.090335177602483 10.977932471866648 13.331800885438572 0 0 0
306 2 7.090333123238273 14.535158951508238 13.799204969154065 0 0 0
312 2 9.038776281926168 12.102870474690642 11.991122729572155 0 0 0
251 1 1.1641885222747435 14.996793310544662 12.661456549046232 0 0 0
257 2 1.6815446220988026 16.35056752733752 11.991112892076478 0 0 0
255 2 3.5057136856687707 18.129181190441088 11.52370941524636 0 0 0
261 1 3.6165985873064113 14.764011922049514 14.469543821911754 0 0 0
265 2 4.637929097238946 15.225634737888145 13.331796737941014 0 0 0
298 1 6.069008491871044 14.996789388838048 12.661458827047724 0 0 0
302 2 8.410527560720025 18.129179647070774 11.523709934863312 0 0 0
304 2 6.586372902898071 16.350561170123083 11.991126388346153 0 0 0
308 1 8.521412339509462 14.764004324697073 14.469542546633448 0 0 0
311 2 9.542734379370213 15.22562867930785 13.331792436151149 0 0 0
252 1 1.1641871452111006 19.01170236574 14.469545057249809 0 0 0
256 2 2.185516883629793 19.473330802383625 13.331798379749804 0 0 0
289 1 3.616598792308866 19.244488936148297 12.661459611924888 0 0 0
295 2 4.133957807219938 20.598260504209502 11.991121408462067 0 0 0
297 2 4.63792795493889 18.78286391327705 13.799202390562472 0 0 0
299 1 6.069010681828714 19.011707152110446 14.469543909169026 0 0 0
303 2 7.090338062047796 19.473333504636763 13.331801678491704 0 0 0
318 1 8.521415230078262 19.244488292314774 12.661455067639606 0 0 0
323 2 9.038772551525966 20.59826055569113 11.991117810341215 0 0 0
324 2 9.542737494833114 18.782863582853103 13.799205226966219 0 0 0
249 2 1.053302970537505 22.37688164333126 11.523714439376445 0 0 0
285 1 1.164195990188286 23.492189299992173 12.66146350466591 0 0 0
286 2 1.6815515402978027 24.8459588968363 11.991121383006877 0 0 0
288 2 2.185524980357499 23.030560272198915 13.799205613666915 0 0 0
290 1 3.6166017361353946 23.259398474595045 14.469548677964712 0 0 0
293 2 5.958126362205143 22.37687520462969 11.523722291229952 0 0 0
294 2 4.637929338366369 23.721027540846627 13.331805993828711 0 0 0
314 1 6.069010751426127 23.492182394256695 12.661463995150012 0 0 0
315 2 6.586370276612909 24.845954248542064 11.991120958632344 0 0 0
317 2 7.090336469944613 23.03055735962419 13.799212095105517 0 0 0
319 1 8.521420044342682 23.259401377820957 14.469549765130308 0 0 0
322 2 9.542749519340433 23.721032771046282 13.331808284069627 0 0 0
218 2 1.0532991647839012 3.136239118317791 15.607291685652742 0 0 0
221 2 1.6815361647808111 0.6671573921732943 15.139897010280825 0 0 0
242 2 5.958120303774182 3.1362309457882356 15.607291703784988 0 0 0
330 2 3.5057145300108403 1.138396502792678 16.947977193195324 0 0 0
343 1 3.616601697662417 2.25370201818739 18.085726413989587 0 0 0
349 2 4.1339602288124 3.6074761263186566 17.41538047887246 0 0 0
246 2 6.586352115711367 0.6671475037116982 15.139892784928682 0 0 0
355 2 8.410530726727757 1.1384061485035917 16.947971819135415 0 0 0
386 1 8.521416753642365 2.2537065576806197 18.085723932728683 0 0 0
391 2 9.038780399176009 3.6074804620102285 17.415394196928634 0 0 0
325 2 1.0533060543575294 5.386101478292686 16.94797562456879 0 0 0
334 1 1.164195879204051 6.501405125985732 18.08572901538061 0 0 0
388 1 0.13957818103081274 4.261166785282352 16.277642415201814 1 0 0
238 2 4.133953391702737 4.914845228557631 15.1398899120008 0 0 0
345 1 5.04439799998512 4.261164232565132 16.27763482775079 0 0 0
347 2 5.958121508960751 5.386094550734227 16.94797495581407 0 0 0
377 1 6.069010230190704 6.501400239785278 18.085723516729384 0 0 0
281 2 9.03875594400904 4.914845881415791 15.139900830490811 0 0 0
229 2 1.6815422634107717 9.162541549800135 15.139893035599677 0 0 0
336 1 2.5919873233391706 8.508861999127282 16.277640189950514 0 0 0
340 2 1.681549792927514 7.855180810062666 17.415388788487824 0 0 0
233 2 3.5057098147284798 7.383930455169497 15.60729703356366 0 0 0
338 2 3.505709357327542 9.633797962394867 16.947978125031288 0 0 0
368 1 3.616599895858099 10.749101508638836 18.08572690666398 0 0 0
272 2 6.586357195798349 9.162539763053593 15.139895346244867 0 0 0
276 2 8.410531970362634 7.383934612843195 15.607284592166792 0 0 0
379 1 7.49680524975277 8.508861238003265 16.277636812423616 0 0 0
381 2 8.410532137469545 9.633788760211175 16.94797612907715 0 0 0
383 2 6.586364880269733 7.855173729056427 17.415382671298186 0 0 0
415 1 8.521421518779915 10.749094174762732 18.085724033918478 0 0 0
225 2 1.0533057853847454 11.631622789200105 15.607289770706364 0 0 0
332 2 1.053310870937596 13.881481987556969 16.947981747314895 0 0 0
417 1 0.1395867636641589 12.756550757825572 16.27763989539999 1 0 0
263 2 4.133955439532273 13.41024255024976 15.139889692016729 0 0 0
267 2 5.958116316090467 11.631622584247118 15.607289873478603 0 0 0
370 1 5.044395612248458 12.756554545997167 16.277636596587815 0 0 0
372 2 5.958119507434641 13.881487484482218 16.947976972621124 0 0 0
374 2 4.133955497596772 12.102874327281558 17.41538795642328 0 0 0
310 2 9.03877156394994 13.41023709108096 15.139892165605621 0 0 0
420 2 9.038778671465035 12.102865248343004 17.415386385056234 0 0 0
254 2 1.6815397975101845 17.657928622652598 15.139892544454533 0 0 0
359 1 1.1641934055959067 14.99679134402844 18.085727090125076 0 0 0
361 1 2.59198761864925 17.004244119750567 16.27763791763558 0 0 0
365 2 1.681550962979051 16.35056069929011 17.415384563740236 0 0 0
258 2 3.5057134446702483 15.879322598519778 15.607288692976292 0 0 0
363 2 3.5057096590581556 18.129179113890633 16.947980938821413 0 0 0
406 1 6.069003884783931 14.996793472167992 18.08572537511071 0 0 0
301 2 6.586361445513688 17.65793301738173 15.13988987535254 0 0 0
305 2 8.410523916908883 15.879318071071388 15.60728370174825 0 0 0
408 1 7.496804315714879 17.004249747493294 16.27763585034877 0 0 0
410 2 8.410530205123957 18.129175609515112 16.947982993771934 0 0 0
412 2 6.586356083392969 16.3505698512439 17.4153801562063 0 0 0
250 2 1.0533028492318837 20.12701096833529 15.607293488614587 0 0 0
428 1 0.13958448736730755 21.251941958043904 16.277639771939196 1 0 0
296 2 5.958120729985726 20.12701921216926 15.607286877174147 0 0 0
397 1 3.6165924299296797 19.244487221867864 18.085724916108543 0 0 0
399 1 5.044394829406027 21.251942604606096 16.277635849903195 0 0 0
403 2 4.13395473465688 20.598255463043234 17.415378222943392 0 0 0
426 1 8.52141508947273 19.24448865852206 18.085725840469483 0 0 0
431 2 9.038771447763175 20.59825714613217 17.41538324375095 0 0 0
328 1 2.591986449761965 0.013469754775786835 16.27763955077392 0 0 0
357 2 1.053308956314631 22.376874487676634 16.947983509925056 0 0 0
393 1 1.1641898789105 23.49218266689205 18.085728086812118 0 0 0
394 2 1.6815446493058877 24.8459568894849 17.415388127540865 0 0 0
287 2 3.5057093712153518 24.374710047939416 15.607294359300262 0 0 0
292 2 4.133948572040759 21.90562416023444 15.139894175063894 0 0 0
401 2 5.958112501660352 22.376876803301695 16.94797948892797 0 0 0
422 1 6.069002983303812 23.49218329552888 18.085728390423586 0 0 0
353 1 7.496806598445659 0.01347043255354537 16.277637623442644 0 0 0
316 2 8.410531822574919 24.3747142005745 15.6072934515928 0 0 0
321 2 9.038778317026127 21.905630769152427 15.139895255117501 0 0 0
423 2 6.586367341935742 24.84595868304482 17.415391109520947 0 0 0
326 2 1.0532999976620327 3.136230524021595 21.031557838709038 0 0 0
327 1 1.1641914845299268 2.020919465954283 19.893812393244325 0 0 0
329 2 1.6815405814806752 0.6671487913510583 20.564160527916208 0 0 0
331 2 2.1855242971925386 2.482543776141989 18.756074330037812 0 0 0
350 2 5.958120561878187 3.136226675274299 21.03156228602558 0 0 0
351 2 4.637930063919985 1.792078605240935 19.223470312189686 0 0 0
352 1 6.069005869712539 2.0209227789469324 19.893809058659066 0 0 0
354 2 6.5863629994174016 0.6671491726710397 20.564158934910882 0 0 0
356 2 7.090334629076774 2.482548279415497 18.756061576375643 0 0 0
392 2 9.542745671390449 1.792076838673027 19.22347064453351 0 0 0
64 1 0.1395806001050956 4.261162528879931 21.70190308236232 1 0 -1
342 2 2.185525603295221 6.039776122959987 19.223465492239267 0 0 0
21 1 5.044399580691584 4.26116313303002 21.70190652610614 0 0 -1
344 1 3.6166000186453675 6.268618042645807 19.893810817139677 0 0 0
346 2 4.1339572791430115 4.914848424189464 20.564161900035295 0 0 0
348 2 4.637928470920632 6.7302408759093515 18.7560645069114 0 0 0
385 2 7.090340466131417 6.039778242032197 19.223466935504053 0 0 0
387 1 8.521414259182098 6.268624742358719 19.893815274905187 0 0 0
389 2 9.038769602371865 4.914851225800516 20.56416105359267 0 0 0
390 2 9.542749164223373 6.730246344751849 18.756071993075103 0 0 0
12 1 2.5919883007527083 8.508855584325635 21.70190847467742 0 0 -1
335 1 1.1641898910960062 10.516316979124761 19.893814920278512 0 0 0
337 2 1.6815395380200917 9.16254371010246 20.56416823577949 0 0 0
341 2 3.5057088108301175 7.383926654051043 21.031556485360305 0 0 0
376 2 4.637929891293077 10.287472471262287 19.223468441167903 0 0 0
378 1 6.069007318536334 10.516317593449077 19.89381325143535 0 0 0
55 1 7.496807604749869 8.508862843762538 21.70190755156329 0 0 -1
380 2 6.586361673803799 9.162546607026263 20.564163692943048 0 0 0
384 2 8.410524080103832 7.383928641557539 21.03156433762789 0 0 0
421 2 9.54274755513557 10.287469239685985 19.22346773483397 0 0 0
93 1 0.1395793439633728 12.756558268422099 21.70190717378701 1 0 -1
333 2 1.0533017819212742 11.631628693736474 21.031556745137895 0 0 0
339 2 2.1855201236461137 10.977942006630133 18.75607110676494 0 0 0
367 2 2.185520459333145 14.535170508157274 19.223473678015836 0 0 0
46 1 5.044394853588589 12.756554108207647 21.701906008496984 0 0 -1
371 2 4.1339496925866674 13.410238891536505 20.56415947886646 0 0 0
375 2 5.958116820556275 11.631627527237763 21.03156011822276 0 0 0
382 2 7.0903399581644315 10.977944573857133 18.756070318391462 0 0 0
414 2 7.090332372641727 14.535172339631645 19.223468800477537 0 0 0
418 2 9.038763543144155 13.410240508898896 20.564163566439927 0 0 0
37 1 2.5919904127390936 17.004250009968583 21.70190636923745 0 0 -1
362 2 1.6815439242842647 17.657931185607353 20.56415789930897 0 0 0
366 2 3.5057123595791047 15.87931846685465 21.031561792890574 0 0 0
369 1 3.616596320187063 14.764012964664191 19.893814898751323 0 0 0
373 2 4.6379271277631835 15.225634227701237 18.756070121317975 0 0 0
84 1 7.496796754627897 17.004253191371642 21.70190485839977 0 0 -1
409 2 6.58635449443644 17.657937731290524 20.564157305447736 0 0 0
413 2 8.410519874203587 15.879322423740152 21.031553434039523 0 0 0
416 1 8.52141006480527 14.764009901482915 19.89380917953942 0 0 0
419 2 9.542743555933669 15.225627930506793 18.75606624341915 0 0 0
104 1 0.13957923224552152 21.251941289624988 21.70190859770987 1 0 -1
358 2 1.053305286567115 20.12701748576168 21.031564312602825 0 0 0
360 1 1.1641845675289226 19.011703710602575 19.893818246741414 0 0 0
364 2 2.1855091964133972 19.473324209708945 18.756062727890075 0 0 0
75 1 5.0443903608755924 21.251948995455553 21.70190683489722 0 0 -1
404 2 5.958117707811528 20.127019602582813 21.031556182322905 0 0 0
405 2 4.637917854729583 18.78286785751712 19.223476294414795 0 0 0
407 1 6.068999002638264 19.01170924371616 19.89381352926619 0 0 0
411 2 7.090330673114213 19.47332727529146 18.756064299409346 0 0 0
432 2 9.54273471290551 18.782868366975535 19.223481421289492 0 0 0
4 1 2.5919858654846073 0.01346840323992218 21.701908810877622 0 0 -1
396 2 2.185513643604285 23.03055624092435 19.223476880858012 0 0 0
395 2 3.505709085391242 24.374705823502488 21.031564935891314 0 0 0
398 1 3.6165938444185044 23.259398424084495 19.89381336928819 0 0 0
400 2 4.133944255502231 21.90562555480706 20.564162193343968 0 0 0
402 2 4.637924016060799 23.721023551833255 18.756072325688912 0 0 0
29 1 7.4968036504124465 25.499636894832214 21.70191282434068 0 -1 -1
424 2 8.410523949499082 24.3747002212075 21.031566705400714 0 0 0
425 2 7.090330976744871 23.030555980983834 19.2234761451598 0 0 0
427 1 8.521411017648408 23.25939594288253 19.89381402474047 0 0 0
429 2 9.038768719957258 21.905624422306424 20.564162769381923 0 0 0
430 2 9.542735004321928 23.721016074484535 18.756061110964463 0 0 0

Velocities

3 -0.01820102873746649 -0.0317159352960639 0.00022614191302711888
7 -0.037346553161276844 -0.040296258762532046 -0.023272891559708287
6 -0.01619146833107312 0.05251263490127823 -0.023351172961553
19 -0.01836409853053478 0.03165051504901453 -3.880019688534485e-05
25 0.053353785370416865 0.012542786011067045 0.023286632138375885
27 -0.037697917858428076 0.040467098592570264 0.023329424951646777
28 -0.018356058484391855 -0.031589819352273944 9.654649230478928e-06
31 -0.016083356313943694 0.05246565703069608 -0.0228643757050299
32 -0.037581583205874895 -0.04025201734299152 -0.02322084928717406
62 -0.018292733602815706 0.031641992802996295 0.00011090930166543893