ITEM: TIMESTEP
0
ITEM: NUMBER OF ATOMS
432
ITEM: BOX BOUNDS xy xz yz pp pp pp
0.0000000000000000e+00 9.8200000000000003e+00 0.0000000000000000e+00
0.0000000000000000e+00 2.5513108395489539e+01 0.0000000000000000e+00
0.0000000000000000e+00 2.1719999999999999e+01 0.0000000000000000e+00
ITEM: ATOMS id type x y z
1 2 1.08756 5.39602 0.62445
2 2 1.08756 3.10835 4.75125
3 1 1.30361 2.25791 3.61638
4 1 2.30279 0 0
5 2 1.67431 0.612315 4.26255
6 2 3.54256 1.14384 0.62445
7 2 2.14812 2.49603 2.41635
8 2 1.08756 13.9004 0.62445
9 2 1.08756 11.6127 4.75125
10 1 1.30361 6.24646 1.80819
11 1 1.30361 10.7623 3.61638
12 1 2.30279 8.50437 0
13 2 1.67431 9.11668 4.26255
14 2 3.54256 9.64821 0.62445
15 2 2.14812 11.0004 2.41635
16 2 1.67431 7.89205 1.22175
17 2 3.54257 7.36053 4.75125
18 2 2.14812 6.00834 2.95935
19 1 3.75861 1.99427 1.80819
20 1 3.75861 6.51009 3.61638
21 1 4.75779 4.25218 0
22 2 4.12931 4.8645 4.26255
23 2 5.99756 5.39602 0.62445
24 2 4.60312 6.74822 2.41635
25 2 4.12931 3.63987 1.22175
26 2 5.99756 3.10835 4.75125
27 2 4.60312 1.75615 2.95935
28 1 6.21361 2.25791 3.61638
29 1 7.21279 0 0
30 2 6.58431 0.612315 4.26255
31 2 8.45256 1.14384 0.62445
32 2 7.05812 2.49603 2.41635
33 2 1.08756 22.4048 0.62445
34 2 1.08756 20.1171 4.75125
35 1 1.30361 14.7508 1.80819
36 1 1.30361 19.2666 3.61638
37 1 2.30279 17.0087 0
38 2 1.67431 17.6211 4.26255
39 2 3.54256 18.1526 0.62445
40 2 2.14812 19.5048 2.41635
41 2 1.67431 16.3964 1.22175
42 2 3.54256 15.8649 4.75125
43 2 2.14813 14.5127 2.95935
44 1 3.75861 10.4986 1.80819
45 1 3.75861 15.0145 3.61638
46 1 4.75779 12.7566 0
47 2 4.12931 13.3689 4.26255
48 2 5.99756 13.9004 0.62445
49 2 4.60313 15.2526 2.41635
50 2 4.12931 12.1442 1.22175
51 2 5.99756 11.6127 4.75125
52 2 4.60313 10.2605 2.95935
53 1 6.21361 6.24646 1.80819
54 1 6.21361 10.7623 3.61638
55 1 7.21279 8.50437 0
56 2 6.58431 9.11668 4.26255
57 2 8.45256 9.64821 0.62445
58 2 7.05812 11.0004 2.41635
59 2 6.58431 7.89205 1.22175
60 2 8.45256 7.36053 4.75125
61 2 7.05813 6.00834 2.95935
62 1 8.66861 1.99427 1.80819
63 1 8.6686 6.51009 3.61638
64 1 9.66779 4.25218 0
65 2 9.03931 4.8645 4.26255
66 2 9.51312 6.74822 2.41635
67 2 9.03931 3.63987 1.22175
68 2 9.51313 1.75615 2.95935
69 1 1.30361 23.2552 1.80819
70 2 1.67431 24.9008 1.22175
71 2 3.54256 24.3693 4.75125
72 2 2.14813 23.0171 2.95935
73 1 3.75861 19.003 1.80819
74 1 3.75861 23.5188 3.61638
75 1 4.75779 21.2609 0
76 2 4.12931 21.8732 4.26255
77 2 5.99757 22.4048 0.62445
78 2 4.60312 23.757 2.41635
79 2 4.12931 20.6486 1.22175
80 2 5.99756 20.1171 4.75125
81 2 4.60313 18.7649 2.95935
82 1 6.21361 14.7508 1.80819
83 1 6.21361 19.2666 3.61638
84 1 7.21279 17.0087 0
85 2 6.58431 17.6211 4.26255
86 2 8.45256 18.1526 0.62445
87 2 7.05812 19.5048 2.41635
88 2 6.58431 16.3964 1.22175
89 2 8.45256 15.8649 4.75125
90 2 7.05813 14.5127 2.95935
91 1 8.6686 10.4986 1.80819
92 1 8.66861 15.0145 3.61638
93 1 9.66779 12.7566 0
94 2 9.03931 13.3689 4.26255
95 2 9.51312 15.2526 2.41635
96 2 9.03931 12.1442 1.22175
97 2 9.51313 10.2605 2.95935
98 1 6.21361 23.2552 1.80819
99 2 6.58431 24.9008 1.22175
100 2 8.45256 24.3693 4.75125
101 2 7.05812 23.0171 2.95935
102 1 8.6686 19.003 1.80819
103 1 8.6686 23.5188 3.61638
104 1 9.66779 21.2609 0
105 2 9.03931 21.8732 4.26255
106 2 9.51312 23.757 2.41635
107 2 9.03931 20.6486 1.22175
108 2 9.51313 18.7649 2.95935
109 2 1.08756 5.39602 6.05445
110 2 1.08756 3.10835 10.1812
111 1 1.30361 2.25791 9.04638
112 1 2.30279 0 5.43
113 2 1.67431 0.612315 9.69255
114 2 3.54256 1.14384 6.05445
115 2 2.14812 2.49603 7.84635
116 2 1.08756 13.9004 6.05445
117 2 1.08756 11.6127 10.1812
118 1 1.30361 6.24646 7.23819
119 1 1.30361 10.7623 9.04638
120 1 2.30279 8.50437 5.43
121 2 1.67431 9.11668 9.69255
122 2 3.54256 9.64821 6.05445
123 2 2.14812 11.0004 7.84635
124 2 1.67431 7.89205 6.65175
125 2 3.54257 7.36053 10.1812
126 2 2.14812 6.00834 8.38935
127 1 3.75861 1.99427 7.23819
128 1 3.75861 6.51009 9.04638
129 1 4.75779 4.25218 5.43
130 2 4.12931 4.8645 9.69255
131 2 5.99756 5.39602 6.05445
132 2 4.60312 6.74822 7.84635
133 2 4.12931 3.63987 6.65175
134 2 5.99756 3.10835 10.1812
135 2 4.60312 1.75615 8.38935
136 1 6.21361 2.25791 9.04638
137 1 7.21279 0 5.43
138 2 6.58431 0.612315 9.69255
139 2 8.45256 1.14384 6.05445
140 2 7.05812 2.49603 7.84635
141 2 1.08756 22.4048 6.05445
142 2 1.08756 20.1171 10.1812
143 1 1.30361 14.7508 7.23819
144 1 1.30361 19.2666 9.04638
145 1 2.30279 17.0087 5.43
146 2 1.67431 17.6211 9.69255
147 2 3.54256 18.1526 6.05445
148 2 2.14812 19.5048 7.84635
149 2 1.67431 16.3964 6.65175
150 2 3.54256 15.8649 10.1812
151 2 2.14813 14.5127 8.38935
152 1 3.75861 10.4986 7.23819
153 1 3.75861 15.0145 9.04638
154 1 4.75779 12.7566 5.43
155 2 4.12931 13.3689 9.69255
156 2 5.99756 13.9004 6.05445
157 2 4.60313 15.2526 7.84635
158 2 4.12931 12.1442 6.65175
159 2 5.99756 11.6127 10.1812
160 2 4.60313 10.2605 8.38935
161 1 6.21361 6.24646 7.23819
162 1 6.21361 10.7623 9.04638
163 1 7.21279 8.50437 5.43
164 2 6.58431 9.11668 9.69255
165 2 8.45256 9.64821 6.05445
166 2 7.05812 11.0004 7.84635
167 2 6.58431 7.89205 6.65175
168 2 8.45256 7.36053 10.1812
169 2 7.05813 6.00834 8.38935
170 1 8.66861 1.99427 7.23819
171 1 8.6686 6.51009 9.04638
172 1 9.66779 4.25218 5.43
173 2 9.03931 4.8645 9.69255
174 2 9.51312 6.74822 7.84635
175 2 9.03931 3.63987 6.65175
176 2 9.51313 1.75615 8.38935
177 1 1.30361 23.2552 7.23819
178 2 1.67431 24.9008 6.65175
179 2 3.54256 24.3693 10.1812
180 2 2.14813 23.0171 8.38935
181 1 3.75861 19.003 7.23819
182 1 3.75861 23.5188 9.04638
183 1 4.75779 21.2609 5.43
184 2 4.12931 21.8732 9.69255
185 2 5.99757 22.4048 6.05445
186 2 4.60312 23.757 7.84635
187 2 4.12931 20.6486 6.65175
188 2 5.99756 20.1171 10.1812
189 2 4.60313 18.7649 8.38935
190 1 6.21361 14.7508 7.23819
191 1 6.21361 19.2666 9.04638
192 1 7.21279 17.0087 5.43
193 2 6.58431 17.6211 9.69255
194 2 8.45256 18.1526 6.05445
195 2 7.05812 19.5048 7.84635
196 2 6.58431 16.3964 6.65175
197 2 8.45256 15.8649 10.1812
198 2 7.05813 14.5127 8.38935
199 1 8.6686 10.4986 7.23819
200 1 8.66861 15.0145 9.04638
201 1 9.66779 12.7566 5.43
202 2 9.03931 13.3689 9.69255
203 2 9.51312 15.2526 7.84635
204 2 9.03931 12.1442 6.65175
205 2 9.51313 10.2605 8.38935
206 1 6.21361 23.2552 7.23819
207 2 6.58431 24.9008 6.65175
208 2 8.45256 24.3693 10.1812
209 2 7.05812 23.0171 8.38935
210 1 8.6686 19.003 7.23819
211 1 8.6686 23.5188 9.04638
212 1 9.66779 21.2609 5.43
213 2 9.03931 21.8732 9.69255
214 2 9.51312 23.757 7.84635
215 2 9.03931 20.6486 6.65175
216 2 9.51313 18.7649 8.38935
217 2 1.08756 5.39602 11.4845
218 2 1.08756 3.10835 15.6112
219 1 1.30361 2.25791 14.4764
220 1 2.30279 0 10.86
221 2 1.67431 0.612315 15.1226
222 2 3.54256 1.14384 11.4845
223 2 2.14812 2.49603 13.2763
224 2 1.08756 13.9004 11.4845
225 2 1.08756 11.6127 15.6112
226 1 1.30361 6.24646 12.6682
227 1 1.30361 10.7623 14.4764
228 1 2.30279 8.50437 10.86
229 2 1.67431 9.11668 15.1226
230 2 3.54256 9.64821 11.4845
231 2 2.14812 11.0004 13.2763
232 2 1.67431 7.89205 12.0817
233 2 3.54257 7.36053 15.6112
234 2 2.14812 6.00834 13.8193
235 1 3.75861 1.99427 12.6682
236 1 3.75861 6.51009 14.4764
237 1 4.75779 4.25218 10.86
238 2 4.12931 4.8645 15.1226
239 2 5.99756 5.39602 11.4845
240 2 4.60312 6.74822 13.2763
241 2 4.12931 3.63987 12.0817
242 2 5.99756 3.10835 15.6112
243 2 4.60312 1.75615 13.8193
244 1 6.21361 2.25791 14.4764
245 1 7.21279 0 10.86
246 2 6.58431 0.612315 15.1226
247 2 8.45256 1.14384 11.4845
248 2 7.05812 2.49603 13.2763
249 2 1.08756 22.4048 11.4845
250 2 1.08756 20.1171 15.6112
251 1 1.30361 14.7508 12.6682
252 1 1.30361 19.2666 14.4764
253 1 2.30279 17.0087 10.86
254 2 1.67431 17.6211 15.1226
255 2 3.54256 18.1526 11.4845
256 2 2.14812 19.5048 13.2763
257 2 1.67431 16.3964 12.0817
258 2 3.54256 15.8649 15.6112
259 2 2.14813 14.5127 13.8193
260 1 3.75861 10.4986 12.6682
261 1 3.75861 15.0145 14.4764
262 1 4.75779 12.7566 10.86
263 2 4.12931 13.3689 15.1226
264 2 5.99756 13.9004 11.4845
265 2 4.60313 15.2526 13.2763
266 2 4.12931 12.1442 12.0817
267 2 5.99756 11.6127 15.6112
268 2 4.60313 10.2605 13.8193
269 1 6.21361 6.24646 12.6682
270 1 6.21361 10.7623 14.4764
271 1 7.21279 8.50437 10.86
272 2 6.58431 9.11668 15.1226
273 2 8.45256 9.64821 11.4845
274 2 7.05812 11.0004 13.2763
275 2 6.58431 7.89205 12.0817
276 2 8.45256 7.36053 15.6112
277 2 7.05813 6.00834 13.8193
278 1 8.66861 1.99427 12.6682
279 1 8.6686 6.51009 14.4764
280 1 9.66779 4.25218 10.86
281 2 9.03931 4.8645 15.1226
282 2 9.51312 6.74822 13.2763
283 2 9.03931 3.63987 12.0817
284 2 9.51313 1.75615 13.8193
285 1 1.30361 23.2552 12.6682
286 2 1.67431 24.9008 12.0817
287 2 3.54256 24.3693 15.6112
288 2 2.14813 23.0171 13.8193
289 1 3.75861 19.003 12.6682
290 1 3.75861 23.5188 14.4764
291 1 4.75779 21.2609 10.86
292 2 4.12931 21.8732 15.1226
293 2 5.99757 22.4048 11.4845
294 2 4.60312 23.757 13.2763
295 2 4.12931 20.6486 12.0817
296 2 5.99756 20.1171 15.6112
297 2 4.60313 18.7649 13.8193
298 1 6.21361 14.7508 12.6682
299 1 6.21361 19.2666 14.4764
300 1 7.21279 17.0087 10.86
301 2 6.58431 17.6211 15.1226
302 2 8.45256 18.1526 11.4845
303 2 7.05812 19.5048 13.2763
304 2 6.58431 16.3964 12.0817
305 2 8.45256 15.8649 15.6112
306 2 7.05813 14.5127 13.8193
307 1 8.6686 10.4986 12.6682
308 1 8.66861 15.0145 14.4764
309 1 9.66779 12.7566 10.86
310 2 9.03931 13.3689 15.1226
311 2 9.51312 15.2526 13.2763
312 2 9.03931 12.1442 12.0817
313 2 9.51313 10.2605 13.8193
314 1 6.21361 23.2552 12.6682
315 2 6.58431 24.9008 12.0817
316 2 8.45256 24.3693 15.6112
317 2 7.05812 23.0171 13.8193
318 1 8.6686 19.003 12.6682
319 1 8.6686 23.5188 14.4764
320 1 9.66779 21.2609 10.86
321 2 9.03931 21.8732 15.1226
322 2 9.51312 23.757 13.2763
323 2 9.03931 20.6486 12.0817
324 2 9.51313 18.7649 13.8193
325 2 1.08756 5.39602 16.9144
326 2 1.08756 3.10835 21.0412
327 1 1.30361 2.25791 19.9064
328 1 2.30279 0 16.29
329 2 1.67431 0.612315 20.5526
330 2 3.54256 1.14384 16.9144
331 2 2.14812 2.49603 18.7063
332 2 1.08756 13.9004 16.9144
333 2 1.08756 11.6127 21.0412
334 1 1.30361 6.24646 18.0982
335 1 1.30361 10.7623 19.9064
336 1 2.30279 8.50437 16.29
337 2 1.67431 9.11668 20.5526
338 2 3.54256 9.64821 16.9144
339 2 2.14812 11.0004 18.7063
340 2 1.67431 7.89205 17.5117
341 2 3.54257 7.36053 21.0412
342 2 2.14812 6.00834 19.2493
343 1 3.75861 1.99427 18.0982
344 1 3.75861 6.51009 19.9064
345 1 4.75779 4.25218 16.29
346 2 4.12931 4.8645 20.5526
347 2 5.99756 5.39602 16.9144
348 2 4.60312 6.74822 18.7063
349 2 4.12931 3.63987 17.5117
350 2 5.99756 3.10835 21.0412
351 2 4.60312 1.75615 19.2493
352 1 6.21361 2.25791 19.9064
353 1 7.21279 0 16.29
354 2 6.58431 0.612315 20.5526
355 2 8.45256 1.14384 16.9144
356 2 7.05812 2.49603 18.7063
357 2 1.08756 22.4048 16.9144
358 2 1.08756 20.1171 21.0412
359 1 1.30361 14.7508 18.0982
360 1 1.30361 19.2666 19.9064
361 1 2.30279 17.0087 16.29
362 2 1.67431 17.6211 20.5526
363 2 3.54256 18.1526 16.9144
364 2 2.14812 19.5048 18.7063
365 2 1.67431 16.3964 17.5117
366 2 3.54256 15.8649 21.0412
367 2 2.14813 14.5127 19.2493
368 1 3.75861 10.4986 18.0982
369 1 3.75861 15.0145 19.9064
370 1 4.75779 12.7566 16.29
371 2 4.12931 13.3689 20.5526
372 2 5.99756 13.9004 16.9144
373 2 4.60313 15.2526 18.7063
374 2 4.12931 12.1442 17.5117
375 2 5.99756 11.6127 21.0412
376 2 4.60313 10.2605 19.2493
377 1 6.21361 6.24646 18.0982
378 1 6.21361 10.7623 19.9064
379 1 7.21279 8.50437 16.29
380 2 6.58431 9.11668 20.5526
381 2 8.45256 9.64821 16.9144
382 2 7.05812 11.0004 18.7063
383 2 6.58431 7.89205 17.5117
384 2 8.45256 7.36053 21.0412
385 2 7.05813 6.00834 19.2493
386 1 8.66861 1.99427 18.0982
387 1 8.6686 6.51009 19.9064
388 1 9.66779 4.25218 16.29
389 2 9.03931 4.8645 20.5526
390 2 9.51312 6.74822 18.7063
391 2 9.03931 3.63987 17.5117
392 2 9.51313 1.75615 19.2493
393 1 1.30361 23.2552 18.0982
394 2 1.67431 24.9008 17.5117
395 2 3.54256 24.3693 21.0412
396 2 2.14813 23.0171 19.2493
397 1 3.75861 19.003 18.0982
398 1 3.75861 23.5188 19.9064
399 1 4.75779 21.2609 16.29
400 2 4.12931 21.8732 20.5526
401 2 5.99757 22.4048 16.9144
402 2 4.60312 23.757 18.7063
403 2 4.12931 20.6486 17.5117
404 2 5.99756 20.1171 21.0412
405 2 4.60313 18.7649 19.2493
406 1 6.21361 14.7508 18.0982
407 1 6.21361 19.2666 19.9064
408 1 7.21279 17.0087 16.29
409 2 6.58431 17.6211 20.5526
410 2 8.45256 18.1526 16.9144
411 2 7.05812 19.5048 18.7063
412 2 6.58431 16.3964 17.5117
413 2 8.45256 15.8649 21.0412
414 2 7.05813 14.5127 19.2493
415 1 8.6686 10.4986 18.0982
416 1 8.66861 15.0145 19.9064
417 1 9.66779 12.7566 16.29
418 2 9.03931 13.3689 20.5526
419 2 9.51312 15.2526 18.7063
420 2 9.03931 12.1442 17.5117
421 2 9.51313 10.2605 19.2493
422 1 6.21361 23.2552 18.0982
423 2 6.58431 24.9008 17.5117
424 2 8.45256 24.3693 21.0412
425 2 7.05812 23.0171 19.2493
426 1 8.6686 19.003 18.0982
427 1 8.6686 23.5188 19.9064
428 1 9.66779 21.2609 16.29
429 2 9.03931 21.8732 20.5526
430 2 9.51312 23.757 18.7063
431 2 9.03931 20.6486 17.5117
432 2 9.51313 18.7649 19.2493
