ITEM: TIMESTEP
0
ITEM: NUMBER OF ATOMS
432
ITEM: BOX BOUNDS xy xz yz pp pp pp
5.1837277020396755e-03 9.8148162722979784e+00 0.0000000000000000e+00
1.3467719628899033e-02 2.5499640675860775e+01 0.0000000000000000e+00
1.1465434387812223e-02 2.1708534565612624e+01 0.0000000000000000e+00
ITEM: ATOMS id type x y z
3 1 1.16419 2.02093 3.62102
7 2 2.18552 2.48255 2.48327
6 2 3.50571 1.1384 0.675174
19 1 3.6166 2.25371 1.81292
25 2 4.13396 3.60748 1.14259
27 2 4.63793 1.79208 2.95067
28 1 6.06901 2.02093 3.62101
31 2 8.41053 1.1384 0.675181
32 2 7.09034 2.48255 2.48327
62 1 8.52142 2.2537 1.81293
67 2 9.03877 3.60747 1.14258
68 2 9.54275 1.79208 2.95067
1 2 1.05331 5.38609 0.675178
10 1 1.16419 6.5014 1.81293
18 2 2.18552 6.03978 2.95067
20 1 3.61659 6.26862 3.62102
23 2 5.95813 5.3861 0.675171
24 2 4.63793 6.73025 2.48327
53 1 6.06901 6.5014 1.81293
61 2 7.09033 6.03977 2.95067
63 1 8.52141 6.26862 3.62101
66 2 9.54274 6.73025 2.48326
11 1 1.16419 10.5163 3.62101
16 2 1.68154 7.85518 1.14259
14 2 3.50571 9.63379 0.675176
44 1 3.6166 10.7491 1.81292
52 2 4.63792 10.2875 2.95067
54 1 6.06901 10.5163 3.62101
57 2 8.41053 9.6338 0.675177
59 2 6.58637 7.85517 1.14258
91 1 8.52141 10.7491 1.81292
97 2 9.54274 10.2875 2.95067
8 2 1.0533 13.8815 0.675175
15 2 2.18552 10.9779 2.48327
43 2 2.18552 14.5352 2.95067
48 2 5.95812 13.8815 0.675171
50 2 4.13396 12.1029 1.14258
58 2 7.09033 10.9779 2.48327
90 2 7.09033 14.5352 2.95067
96 2 9.03878 12.1029 1.14259
35 1 1.16419 14.9968 1.81293
41 2 1.68155 16.3506 1.14259
39 2 3.50571 18.1292 0.675178
45 1 3.6166 14.764 3.62101
49 2 4.63793 15.2256 2.48326
82 1 6.06901 14.9968 1.81292
86 2 8.41052 18.1292 0.67518
88 2 6.58636 16.3506 1.14258
92 1 8.52141 14.764 3.62101
95 2 9.54274 15.2256 2.48327
36 1 1.16419 19.0117 3.62101
40 2 2.18552 19.4733 2.48327
73 1 3.6166 19.2445 1.81293
79 2 4.13396 20.5983 1.14259
81 2 4.63793 18.7829 2.95067
83 1 6.06901 19.0117 3.62101
87 2 7.09034 19.4733 2.48327
102 1 8.52141 19.2445 1.81293
107 2 9.03877 20.5983 1.14259
108 2 9.54274 18.7829 2.95067
33 2 1.05331 22.3769 0.675184
69 1 1.16419 23.4922 1.81293
70 2 1.68155 24.846 1.14259
72 2 2.18552 23.0306 2.95068
74 1 3.6166 23.2594 3.62102
77 2 5.95812 22.3769 0.675178
78 2 4.63792 23.721 2.48327
98 1 6.069 23.4922 1.81293
99 2 6.58636 24.846 1.14259
101 2 7.09033 23.0306 2.95067
103 1 8.52141 23.2594 3.62101
106 2 9.54274 23.721 2.48327
2 2 1.0533 3.13623 4.75876
5 2 1.68154 0.667149 4.29136
26 2 5.95811 3.13623 4.75876
114 2 3.50571 1.13841 6.09944
127 1 3.6166 2.25371 7.23719
133 2 4.13396 3.60749 6.56685
30 2 6.58635 0.667154 4.29135
139 2 8.41052 1.13841 6.09943
170 1 8.52141 2.25371 7.23719
175 2 9.03877 3.60748 6.56686
109 2 1.0533 5.3861 6.09944
118 1 1.16418 6.5014 7.23719
172 1 0.139579 4.26116 5.4291
22 2 4.13395 4.91485 4.29136
129 1 5.04439 4.26117 5.4291
131 2 5.95811 5.3861 6.09944
161 1 6.069 6.5014 7.23719
65 2 9.03877 4.91485 4.29135
13 2 1.68154 9.16255 4.29136
120 1 2.59199 8.50886 5.42911
124 2 1.68154 7.85517 6.56685
17 2 3.50571 7.38393 4.75876
122 2 3.50571 9.63379 6.09945
152 1 3.6166 10.7491 7.2372
56 2 6.58636 9.16254 4.29135
60 2 8.41053 7.38393 4.75876
163 1 7.49681 8.50886 5.42911
165 2 8.41053 9.63379 6.09944
167 2 6.58637 7.85518 6.56685
199 1 8.52142 10.7491 7.23719
9 2 1.05331 11.6316 4.75875
116 2 1.05331 13.8815 6.09943
201 1 0.139583 12.7566 5.4291
47 2 4.13396 13.4102 4.29136
51 2 5.95812 11.6316 4.75876
154 1 5.0444 12.7566 5.42911
156 2 5.95812 13.8815 6.09945
158 2 4.13395 12.1029 6.56685
94 2 9.03876 13.4102 4.29136
204 2 9.03879 12.1029 6.56685
38 2 1.68154 17.6579 4.29136
143 1 1.16419 14.9968 7.23719
145 1 2.59199 17.0043 5.4291
149 2 1.68155 16.3506 6.56685
42 2 3.50571 15.8793 4.75875
147 2 3.50571 18.1292 6.09944
190 1 6.069 14.9968 7.23719
85 2 6.58636 17.6579 4.29136
89 2 8.41053 15.8793 4.75876
192 1 7.4968 17.0042 5.42911
194 2 8.41053 18.1292 6.09945
196 2 6.58636 16.3506 6.56685
34 2 1.05329 20.127 4.75876
212 1 0.139572 21.2519 5.4291
80 2 5.95812 20.127 4.75876
181 1 3.6166 19.2445 7.23719
183 1 5.0444 21.2519 5.42911
187 2 4.13396 20.5983 6.56685
210 1 8.52141 19.2445 7.23719
215 2 9.03876 20.5983 6.56685
112 1 2.59199 0.0134696 5.4291
141 2 1.0533 22.3769 6.09945
177 1 1.16419 23.4922 7.2372
178 2 1.68156 24.846 6.56685
71 2 3.50572 24.3747 4.75875
76 2 4.13395 21.9056 4.29136
185 2 5.95812 22.3769 6.09944
206 1 6.06901 23.4922 7.23719
137 1 7.4968 0.0134702 5.4291
100 2 8.41052 24.3747 4.75876
105 2 9.03877 21.9056 4.29135
207 2 6.58637 24.846 6.56686
110 2 1.0533 3.13624 10.183
111 1 1.16419 2.02092 9.04528
113 2 1.68154 0.66715 9.71562
115 2 2.18552 2.48255 7.90753
134 2 5.95811 3.13624 10.183
135 2 4.63793 1.79208 8.37494
136 1 6.06901 2.02093 9.04528
138 2 6.58636 0.667158 9.71563
140 2 7.09033 2.48256 7.90754
176 2 9.54274 1.79208 8.37493
126 2 2.18552 6.03978 8.37493
280 1 0.139574 4.26117 10.8534
128 1 3.61659 6.26862 9.04528
130 2 4.13394 4.91485 9.71563
132 2 4.63792 6.73024 7.90753
237 1 5.04439 4.26117 10.8534
169 2 7.09033 6.03978 8.37493
171 1 8.5214 6.26861 9.04528
173 2 9.03876 4.91485 9.71563
174 2 9.54274 6.73024 7.90753
119 1 1.16419 10.5163 9.04528
121 2 1.68155 9.16255 9.71563
228 1 2.59199 8.50886 10.8534
125 2 3.50571 7.38393 10.183
160 2 4.63793 10.2875 8.37495
162 1 6.06901 10.5163 9.04528
164 2 6.58636 9.16255 9.71563
168 2 8.41052 7.38393 10.183
205 2 9.54274 10.2875 8.37493
271 1 7.49681 8.50886 10.8534
117 2 1.0533 11.6316 10.183
123 2 2.18552 10.9779 7.90753
151 2 2.18552 14.5352 8.37493
309 1 0.13958 12.7566 10.8534
155 2 4.13396 13.4102 9.71562
159 2 5.95813 11.6316 10.183
262 1 5.0444 12.7566 10.8534
166 2 7.09034 10.9779 7.90753
198 2 7.09033 14.5352 8.37493
202 2 9.03877 13.4102 9.71563
146 2 1.68154 17.6579 9.71562
253 1 2.59199 17.0043 10.8534
150 2 3.50572 15.8793 10.183
153 1 3.6166 14.764 9.04528
157 2 4.63793 15.2256 7.90753
193 2 6.58635 17.6579 9.71564
197 2 8.41053 15.8793 10.183
200 1 8.52141 14.764 9.04528
203 2 9.54275 15.2256 7.90753
300 1 7.4968 17.0042 10.8534
142 2 1.0533 20.127 10.183
144 1 1.16418 19.0117 9.04528
148 2 2.18551 19.4733 7.90753
320 1 0.139583 21.2519 10.8534
188 2 5.95813 20.127 10.183
189 2 4.63793 18.7829 8.37494
191 1 6.069 19.0117 9.04528
291 1 5.0444 21.2519 10.8534
195 2 7.09033 19.4733 7.90753
216 2 9.54273 18.7829 8.37495
180 2 2.18552 23.0306 8.37494
220 1 2.59199 0.0134721 10.8534
179 2 3.50572 24.3747 10.183
182 1 3.6166 23.2594 9.04528
184 2 4.13396 21.9056 9.71563
186 2 4.63793 23.721 7.90754
208 2 8.41053 24.3747 10.183
209 2 7.09034 23.0306 8.37494
211 1 8.52142 23.2594 9.04528
213 2 9.03877 21.9056 9.71563
214 2 9.54275 23.721 7.90753
245 1 7.49681 0.0134723 10.8534
219 1 1.16419 2.02093 14.4695
223 2 2.18551 2.48255 13.3318
222 2 3.5057 1.13841 11.5237
235 1 3.61659 2.25371 12.6615
241 2 4.13395 3.60748 11.9911
243 2 4.63792 1.79208 13.7992
244 1 6.069 2.02092 14.4695
247 2 8.41053 1.1384 11.5237
248 2 7.09033 2.48254 13.3318
278 1 8.52142 2.25371 12.6615
283 2 9.03877 3.60748 11.9911
284 2 9.54274 1.79208 13.7992
217 2 1.05331 5.38609 11.5237
226 1 1.16419 6.5014 12.6615
234 2 2.18551 6.03977 13.7992
236 1 3.6166 6.26862 14.4695
239 2 5.95811 5.3861 11.5237
240 2 4.63792 6.73025 13.3318
269 1 6.069 6.50141 12.6615
277 2 7.09033 6.03977 13.7992
279 1 8.52141 6.26861 14.4695
282 2 9.54274 6.73023 13.3318
227 1 1.16419 10.5163 14.4695
232 2 1.68154 7.85517 11.9911
230 2 3.50571 9.63378 11.5237
260 1 3.6166 10.7491 12.6615
268 2 4.63793 10.2875 13.7992
270 1 6.06901 10.5163 14.4695
273 2 8.41053 9.63379 11.5237
275 2 6.58636 7.85518 11.9911
307 1 8.52142 10.7491 12.6615
313 2 9.54275 10.2875 13.7992
224 2 1.05331 13.8815 11.5237
231 2 2.18552 10.9779 13.3318
259 2 2.18552 14.5352 13.7992
264 2 5.95812 13.8815 11.5237
266 2 4.13395 12.1029 11.9911
274 2 7.09034 10.9779 13.3318
306 2 7.09033 14.5352 13.7992
312 2 9.03878 12.1029 11.9911
251 1 1.16419 14.9968 12.6615
257 2 1.68154 16.3506 11.9911
255 2 3.50571 18.1292 11.5237
261 1 3.6166 14.764 14.4695
265 2 4.63793 15.2256 13.3318
298 1 6.06901 14.9968 12.6615
302 2 8.41053 18.1292 11.5237
304 2 6.58637 16.3506 11.9911
308 1 8.52141 14.764 14.4695
311 2 9.54273 15.2256 13.3318
252 1 1.16419 19.0117 14.4695
256 2 2.18552 19.4733 13.3318
289 1 3.6166 19.2445 12.6615
295 2 4.13396 20.5983 11.9911
297 2 4.63793 18.7829 13.7992
299 1 6.06901 19.0117 14.4695
303 2 7.09034 19.4733 13.3318
318 1 8.52142 19.2445 12.6615
323 2 9.03877 20.5983 11.9911
324 2 9.54274 18.7829 13.7992
249 2 1.0533 22.3769 11.5237
285 1 1.1642 23.4922 12.6615
286 2 1.68155 24.846 11.9911
288 2 2.18552 23.0306 13.7992
290 1 3.6166 23.2594 14.4695
293 2 5.95813 22.3769 11.5237
294 2 4.63793 23.721 13.3318
314 1 6.06901 23.4922 12.6615
315 2 6.58637 24.846 11.9911
317 2 7.09034 23.0306 13.7992
319 1 8.52142 23.2594 14.4695
322 2 9.54275 23.721 13.3318
218 2 1.0533 3.13624 15.6073
221 2 1.68154 0.667157 15.1399
242 2 5.95812 3.13623 15.6073
330 2 3.50571 1.1384 16.948
343 1 3.6166 2.2537 18.0857
349 2 4.13396 3.60748 17.4154
246 2 6.58635 0.667148 15.1399
355 2 8.41053 1.13841 16.948
386 1 8.52142 2.25371 18.0857
391 2 9.03878 3.60748 17.4154
325 2 1.05331 5.3861 16.948
334 1 1.1642 6.50141 18.0857
388 1 0.139578 4.26117 16.2776
238 2 4.13395 4.91485 15.1399
345 1 5.0444 4.26116 16.2776
347 2 5.95812 5.38609 16.948
377 1 6.06901 6.5014 18.0857
281 2 9.03876 4.91485 15.1399
229 2 1.68154 9.16254 15.1399
336 1 2.59199 8.50886 16.2776
340 2 1.68155 7.85518 17.4154
233 2 3.50571 7.38393 15.6073
338 2 3.50571 9.6338 16.948
368 1 3.6166 10.7491 18.0857
272 2 6.58636 9.16254 15.1399
276 2 8.41053 7.38393 15.6073
379 1 7.49681 8.50886 16.2776
381 2 8.41053 9.63379 16.948
383 2 6.58636 7.85517 17.4154
415 1 8.52142 10.7491 18.0857
225 2 1.05331 11.6316 15.6073
332 2 1.05331 13.8815 16.948
417 1 0.139587 12.7566 16.2776
263 2 4.13396 13.4102 15.1399
267 2 5.95812 11.6316 15.6073
370 1 5.0444 12.7566 16.2776
372 2 5.95812 13.8815 16.948
374 2 4.13396 12.1029 17.4154
310 2 9.03877 13.4102 15.1399
420 2 9.03878 12.1029 17.4154
254 2 1.68154 17.6579 15.1399
359 1 1.16419 14.9968 18.0857
361 1 2.59199 17.0042 16.2776
365 2 1.68155 16.3506 17.4154
258 2 3.50571 15.8793 15.6073
363 2 3.50571 18.1292 16.948
406 1 6.069 14.9968 18.0857
301 2 6.58636 17.6579 15.1399
305 2 8.41052 15.8793 15.6073
408 1 7.4968 17.0042 16.2776
410 2 8.41053 18.1292 16.948
412 2 6.58636 16.3506 17.4154
250 2 1.0533 20.127 15.6073
428 1 0.139584 21.2519 16.2776
296 2 5.95812 20.127 15.6073
397 1 3.61659 19.2445 18.0857
399 1 5.04439 21.2519 16.2776
403 2 4.13395 20.5983 17.4154
426 1 8.52142 19.2445 18.0857
431 2 9.03877 20.5983 17.4154
328 1 2.59199 0.0134698 16.2776
357 2 1.05331 22.3769 16.948
393 1 1.16419 23.4922 18.0857
394 2 1.68154 24.846 17.4154
287 2 3.50571 24.3747 15.6073
292 2 4.13395 21.9056 15.1399
401 2 5.95811 22.3769 16.948
422 1 6.069 23.4922 18.0857
353 1 7.49681 0.0134704 16.2776
316 2 8.41053 24.3747 15.6073
321 2 9.03878 21.9056 15.1399
423 2 6.58637 24.846 17.4154
326 2 1.0533 3.13623 21.0316
327 1 1.16419 2.02092 19.8938
329 2 1.68154 0.667149 20.5642
331 2 2.18552 2.48254 18.7561
350 2 5.95812 3.13623 21.0316
351 2 4.63793 1.79208 19.2235
352 1 6.06901 2.02092 19.8938
354 2 6.58636 0.667149 20.5642
356 2 7.09033 2.48255 18.7561
392 2 9.54275 1.79208 19.2235
64 1 0.139581 4.26116 21.7019
342 2 2.18553 6.03978 19.2235
21 1 5.0444 4.26116 21.7019
344 1 3.6166 6.26862 19.8938
346 2 4.13396 4.91485 20.5642
348 2 4.63793 6.73024 18.7561
385 2 7.09034 6.03978 19.2235
387 1 8.52141 6.26862 19.8938
389 2 9.03877 4.91485 20.5642
390 2 9.54275 6.73025 18.7561
12 1 2.59199 8.50886 21.7019
335 1 1.16419 10.5163 19.8938
337 2 1.68154 9.16254 20.5642
341 2 3.50571 7.38393 21.0316
376 2 4.63793 10.2875 19.2235
378 1 6.06901 10.5163 19.8938
55 1 7.49681 8.50886 21.7019
380 2 6.58636 9.16255 20.5642
384 2 8.41052 7.38393 21.0316
421 2 9.54275 10.2875 19.2235
93 1 0.139579 12.7566 21.7019
333 2 1.0533 11.6316 21.0316
339 2 2.18552 10.9779 18.7561
367 2 2.18552 14.5352 19.2235
46 1 5.04439 12.7566 21.7019
371 2 4.13395 13.4102 20.5642
375 2 5.95812 11.6316 21.0316
382 2 7.09034 10.9779 18.7561
414 2 7.09033 14.5352 19.2235
418 2 9.03876 13.4102 20.5642
37 1 2.59199 17.0043 21.7019
362 2 1.68154 17.6579 20.5642
366 2 3.50571 15.8793 21.0316
369 1 3.6166 14.764 19.8938
373 2 4.63793 15.2256 18.7561
84 1 7.4968 17.0043 21.7019
409 2 6.58635 17.6579 20.5642
413 2 8.41052 15.8793 21.0316
416 1 8.52141 14.764 19.8938
419 2 9.54274 15.2256 18.7561
104 1 0.139579 21.2519 21.7019
358 2 1.05331 20.127 21.0316
360 1 1.16418 19.0117 19.8938
364 2 2.18551 19.4733 18.7561
75 1 5.04439 21.2519 21.7019
404 2 5.95812 20.127 21.0316
405 2 4.63792 18.7829 19.2235
407 1 6.069 19.0117 19.8938
411 2 7.09033 19.4733 18.7561
432 2 9.54273 18.7829 19.2235
4 1 2.59199 0.0134684 21.7019
396 2 2.18551 23.0306 19.2235
395 2 3.50571 24.3747 21.0316
398 1 3.61659 23.2594 19.8938
400 2 4.13394 21.9056 20.5642
402 2 4.63792 23.721 18.7561
29 1 7.4968 25.4996 21.7019
424 2 8.41052 24.3747 21.0316
425 2 7.09033 23.0306 19.2235
427 1 8.52141 23.2594 19.8938
429 2 9.03877 21.9056 20.5642
430 2 9.54274 23.721 18.7561
