ITEM: TIMESTEP
0
ITEM: NUMBER OF ATOMS
432
ITEM: BOX BOUNDS xy xz yz pp pp pp
0.0000000000000000e+00 9.8200000000000003e+00 0.0000000000000000e+00
0.0000000000000000e+00 2.5513108395489539e+01 0.0000000000000000e+00
0.0000000000000000e+00 2.1719999999999999e+01 0.0000000000000000e+00
ITEM: ATOMS id type x y z fx fy fz
1 2 1.08756 5.39602 0.62445 -68.0846 -248.923 -343.4
2 2 1.08756 3.10835 4.75125 -102.541 361.448 483.801
3 1 1.30361 2.25791 3.61638 -153.624 -462.565 -173.446
4 1 2.30279 0 0 396.115 -69.777 120.637
5 2 1.67431 0.612315 4.26255 -206.685 206.946 -377.574
6 2 3.54256 1.14384 0.62445 -68.0791 -248.922 -343.4
7 2 2.14812 2.49603 2.41635 210.976 49.5322 -296.22
8 2 1.08756 13.9004 0.62445 -68.0846 -248.923 -343.4
9 2 1.08756 11.6127 4.75125 -102.541 361.448 483.801
10 1 1.30361 6.24646 1.80819 -276.581 379.581 -81.4953
11 1 1.30361 10.7623 3.61638 -153.624 -462.565 -173.446
12 1 2.30279 8.50437 0 396.115 -69.777 120.637
13 2 1.67431 9.11668 4.26255 -206.685 206.946 -377.574
14 2 3.54256 9.64821 0.62445 -68.0791 -248.922 -343.4
15 2 2.14812 11.0004 2.41635 210.976 49.5322 -296.22
16 2 1.67431 7.89205 1.22175 -118.974 -125.368 234.791
17 2 3.54257 7.36053 4.75125 -102.536 361.448 483.801
18 2 2.14812 6.00834 2.95935 319.398 -90.8748 432.907
19 1 3.7586 1.99427 1.80819 -276.591 379.581 -81.4954
20 1 3.75861 6.51009 3.61638 -153.634 -462.565 -173.446
21 1 4.75779 4.25218 0 396.116 -69.777 120.637
22 2 4.12931 4.8645 4.26255 -206.681 206.946 -377.574
23 2 5.99756 5.39602 0.62445 -68.0846 -248.923 -343.4
24 2 4.60312 6.74822 2.41635 210.977 49.5322 -296.22
25 2 4.12931 3.63987 1.22175 -118.97 -125.368 234.791
26 2 5.99756 3.10835 4.75125 -102.541 361.448 483.801
27 2 4.60312 1.75615 2.95935 319.399 -90.8747 432.907
28 1 6.21361 2.25791 3.61638 -153.624 -462.565 -173.446
29 1 7.21279 0 0 396.115 -69.777 120.637
30 2 6.58431 0.612315 4.26255 -206.685 206.946 -377.574
31 2 8.45256 1.14384 0.62445 -68.0791 -248.922 -343.4
32 2 7.05812 2.49603 2.41635 210.976 49.5322 -296.22
33 2 1.08756 22.4048 0.62445 -68.0846 -248.923 -343.4
34 2 1.08756 20.1171 4.75125 -102.541 361.448 483.801
35 1 1.30361 14.7508 1.80819 -276.581 379.581 -81.4953
36 1 1.30361 19.2666 3.61638 -153.624 -462.565 -173.446
37 1 2.30279 17.0087 0 396.115 -69.777 120.637
38 2 1.67431 17.6211 4.26255 -206.685 206.946 -377.574
39 2 3.54256 18.1526 0.62445 -68.0791 -248.922 -343.4
40 2 2.14812 19.5048 2.41635 210.976 49.5322 -296.22
41 2 1.67431 16.3964 1.22175 -118.974 -125.368 234.791
42 2 3.54256 15.8649 4.75125 -102.536 361.448 483.801
43 2 2.14813 14.5127 2.95935 319.398 -90.8748 432.907
44 1 3.7586 10.4986 1.80819 -276.591 379.581 -81.4954
45 1 3.7586 15.0145 3.61638 -153.634 -462.565 -173.446
46 1 4.75779 12.7566 0 396.116 -69.777 120.637
47 2 4.12931 13.3689 4.26255 -206.681 206.946 -377.574
48 2 5.99756 13.9004 0.62445 -68.0846 -248.923 -343.4
49 2 4.60313 15.2526 2.41635 210.977 49.5322 -296.22
50 2 4.12931 12.1442 1.22175 -118.97 -125.368 234.791
51 2 5.99756 11.6127 4.75125 -102.541 361.448 483.801
52 2 4.60313 10.2605 2.95935 319.399 -90.8747 432.907
53 1 6.21361 6.24646 1.80819 -276.581 379.581 -81.4953
54 1 6.21361 10.7623 3.61638 -153.624 -462.565 -173.446
55 1 7.21279 8.50437 0 396.115 -69.777 120.637
56 2 6.58431 9.11668 4.26255 -206.685 206.946 -377.574
57 2 8.45256 9.64821 0.62445 -68.0791 -248.922 -343.4
58 2 7.05812 11.0004 2.41635 210.976 49.5322 -296.22
59 2 6.58431 7.89205 1.22175 -118.974 -125.368 234.791
60 2 8.45256 7.36053 4.75125 -102.536 361.448 483.801
61 2 7.05813 6.00834 2.95935 319.398 -90.8748 432.907
62 1 8.66861 1.99427 1.80819 -276.591 379.581 -81.4954
63 1 8.6686 6.51009 3.61638 -153.634 -462.565 -173.446
64 1 9.66779 4.25218 0 396.116 -69.777 120.637
65 2 9.03931 4.8645 4.26255 -206.681 206.946 -377.574
66 2 9.51312 6.74822 2.41635 210.977 49.5322 -296.22
67 2 9.03931 3.63987 1.22175 -118.97 -125.368 234.791
68 2 9.51313 1.75615 2.95935 319.399 -90.8747 432.907
69 1 1.30361 23.2552 1.80819 -276.581 379.581 -81.4953
70 2 1.67431 24.9008 1.22175 -118.974 -125.368 234.791
71 2 3.54256 24.3693 4.75125 -102.536 361.448 483.801
72 2 2.14813 23.0171 2.95935 319.398 -90.8748 432.907
73 1 3.75861 19.003 1.80819 -276.591 379.581 -81.4954
74 1 3.75861 23.5188 3.61638 -153.634 -462.565 -173.446
75 1 4.75779 21.2609 0 396.116 -69.777 120.637
76 2 4.12931 21.8732 4.26255 -206.681 206.946 -377.574
77 2 5.99757 22.4048 0.62445 -68.0846 -248.923 -343.4
78 2 4.60312 23.757 2.41635 210.977 49.5322 -296.22
79 2 4.12931 20.6486 1.22175 -118.97 -125.368 234.791
80 2 5.99756 20.1171 4.75125 -102.541 361.448 483.801
81 2 4.60313 18.7649 2.95935 319.399 -90.8747 432.907
82 1 6.21361 14.7508 1.80819 -276.581 379.581 -81.4953
83 1 6.21361 19.2666 3.61638 -153.624 -462.565 -173.446
84 1 7.21279 17.0087 0 396.115 -69.777 120.637
85 2 6.58431 17.6211 4.26255 -206.685 206.946 -377.574
86 2 8.45256 18.1526 0.62445 -68.0791 -248.922 -343.4
87 2 7.05812 19.5048 2.41635 210.976 49.5322 -296.22
88 2 6.58431 16.3964 1.22175 -118.974 -125.368 234.791
89 2 8.45256 15.8649 4.75125 -102.536 361.448 483.801
90 2 7.05813 14.5127 2.95935 319.398 -90.8748 432.907
91 1 8.6686 10.4986 1.80819 -276.591 379.581 -81.4954
92 1 8.66861 15.0145 3.61638 -153.634 -462.565 -173.446
93 1 9.66779 12.7566 0 396.116 -69.777 120.637
94 2 9.03931 13.3689 4.26255 -206.681 206.946 -377.574
95 2 9.51312 15.2526 2.41635 210.977 49.5322 -296.22
96 2 9.03931 12.1442 1.22175 -118.97 -125.368 234.791
97 2 9.51313 10.2605 2.95935 319.399 -90.8747 432.907
98 1 6.21361 23.2552 1.80819 -276.581 379.581 -81.4953
99 2 6.58431 24.9008 1.22175 -118.974 -125.368 234.791
100 2 8.45256 24.3693 4.75125 -102.536 361.448 483.801
101 2 7.05812 23.0171 2.95935 319.398 -90.8748 432.907
102 1 8.6686 19.003 1.80819 -276.591 379.581 -81.4954
103 1 8.6686 23.5188 3.61638 -153.634 -462.565 -173.446
104 1 9.66779 21.2609 0 396.116 -69.777 120.637
105 2 9.03931 21.8732 4.26255 -206.681 206.946 -377.574
106 2 9.51312 23.757 2.41635 210.977 49.5322 -296.22
107 2 9.03931 20.6486 1.22175 -118.97 -125.368 234.791
108 2 9.51313 18.7649 2.95935 319.399 -90.8747 432.907
109 2 1.08756 5.39602 6.05445 -68.0846 -248.923 -343.4
110 2 1.08756 3.10835 10.1812 -102.541 361.448 483.801
111 1 1.30361 2.25791 9.04638 -153.624 -462.565 -173.446
112 1 2.30279 0 5.43 396.115 -69.777 120.637
113 2 1.67431 0.612315 9.69255 -206.685 206.946 -377.574
114 2 3.54256 1.14384 6.05445 -68.0791 -248.922 -343.4
115 2 2.14812 2.49603 7.84635 210.976 49.5322 -296.22
116 2 1.08756 13.9004 6.05445 -68.0846 -248.923 -343.4
117 2 1.08756 11.6127 10.1812 -102.541 361.448 483.801
118 1 1.30361 6.24646 7.23819 -276.581 379.581 -81.4953
119 1 1.30361 10.7623 9.04638 -153.624 -462.565 -173.446
120 1 2.30279 8.50437 5.43 396.115 -69.777 120.637
121 2 1.67431 9.11668 9.69255 -206.685 206.946 -377.574
122 2 3.54256 9.64821 6.05445 -68.0791 -248.922 -343.4
123 2 2.14812 11.0004 7.84635 210.976 49.5322 -296.22
124 2 1.67431 7.89205 6.65175 -118.974 -125.368 234.791
125 2 3.54257 7.36053 10.1812 -102.536 361.448 483.801
126 2 2.14812 6.00834 8.38935 319.398 -90.8748 432.907
127 1 3.7586 1.99427 7.23819 -276.591 379.581 -81.4954
128 1 3.75861 6.51009 9.04638 -153.634 -462.565 -173.446
129 1 4.75779 4.25218 5.43 396.116 -69.777 120.637
130 2 4.12931 4.8645 9.69255 -206.681 206.946 -377.574
131 2 5.99756 5.39602 6.05445 -68.0846 -248.923 -343.4
132 2 4.60312 6.74822 7.84635 210.977 49.5322 -296.22
133 2 4.12931 3.63987 6.65175 -118.97 -125.368 234.791
134 2 5.99756 3.10835 10.1812 -102.541 361.448 483.801
135 2 4.60312 1.75615 8.38935 319.399 -90.8747 432.907
136 1 6.21361 2.25791 9.04638 -153.624 -462.565 -173.446
137 1 7.21279 0 5.43 396.115 -69.777 120.637
138 2 6.58431 0.612315 9.69255 -206.685 206.946 -377.574
139 2 8.45256 1.14384 6.05445 -68.0791 -248.922 -343.4
140 2 7.05812 2.49603 7.84635 210.976 49.5322 -296.22
141 2 1.08756 22.4048 6.05445 -68.0846 -248.923 -343.4
142 2 1.08756 20.1171 10.1812 -102.541 361.448 483.801
143 1 1.30361 14.7508 7.23819 -276.581 379.581 -81.4953
144 1 1.30361 19.2666 9.04638 -153.624 -462.565 -173.446
145 1 2.30279 17.0087 5.43 396.115 -69.777 120.637
146 2 1.67431 17.6211 9.69255 -206.685 206.946 -377.574
147 2 3.54256 18.1526 6.05445 -68.0791 -248.922 -343.4
148 2 2.14812 19.5048 7.84635 210.976 49.5322 -296.22
149 2 1.67431 16.3964 6.65175 -118.974 -125.368 234.791
150 2 3.54256 15.8649 10.1812 -102.536 361.448 483.801
151 2 2.14813 14.5127 8.38935 319.398 -90.8748 432.907
152 1 3.7586 10.4986 7.23819 -276.591 379.581 -81.4954
153 1 3.7586 15.0145 9.04638 -153.634 -462.565 -173.446
154 1 4.75779 12.7566 5.43 396.116 -69.777 120.637
155 2 4.12931 13.3689 9.69255 -206.681 206.946 -377.574
156 2 5.99756 13.9004 6.05445 -68.0846 -248.923 -343.4
157 2 4.60313 15.2526 7.84635 210.977 49.5322 -296.22
158 2 4.12931 12.1442 6.65175 -118.97 -125.368 234.791
159 2 5.99756 11.6127 10.1812 -102.541 361.448 483.801
160 2 4.60313 10.2605 8.38935 319.399 -90.8747 432.907
161 1 6.21361 6.24646 7.23819 -276.581 379.581 -81.4953
162 1 6.21361 10.7623 9.04638 -153.624 -462.565 -173.446
163 1 7.21279 8.50437 5.43 396.115 -69.777 120.637
164 2 6.58431 9.11668 9.69255 -206.685 206.946 -377.574
165 2 8.45256 9.64821 6.05445 -68.0791 -248.922 -343.4
166 2 7.05812 11.0004 7.84635 210.976 49.5322 -296.22
167 2 6.58431 7.89205 6.65175 -118.974 -125.368 234.791
168 2 8.45256 7.36053 10.1812 -102.536 361.448 483.801
169 2 7.05813 6.00834 8.38935 319.398 -90.8748 432.907
170 1 8.66861 1.99427 7.23819 -276.591 379.581 -81.4954
171 1 8.6686 6.51009 9.04638 -153.634 -462.565 -173.446
172 1 9.66779 4.25218 5.43 396.116 -69.777 120.637
173 2 9.03931 4.8645 9.69255 -206.681 206.946 -377.574
174 2 9.51312 6.74822 7.84635 210.977 49.5322 -296.22
175 2 9.03931 3.63987 6.65175 -118.97 -125.368 234.791
176 2 9.51313 1.75615 8.38935 319.399 -90.8747 432.907
177 1 1.30361 23.2552 7.23819 -276.581 379.581 -81.4953
178 2 1.67431 24.9008 6.65175 -118.974 -125.368 234.791
179 2 3.54256 24.3693 10.1812 -102.536 361.448 483.801
180 2 2.14813 23.0171 8.38935 319.398 -90.8748 432.907
181 1 3.75861 19.003 7.23819 -276.591 379.581 -81.4954
182 1 3.75861 23.5188 9.04638 -153.634 -462.565 -173.446
183 1 4.75779 21.2609 5.43 396.116 -69.777 120.637
184 2 4.12931 21.8732 9.69255 -206.681 206.946 -377.574
185 2 5.99757 22.4048 6.05445 -68.0846 -248.923 -343.4
186 2 4.60312 23.757 7.84635 210.977 49.5322 -296.22
187 2 4.12931 20.6486 6.65175 -118.97 -125.368 234.791
188 2 5.99756 20.1171 10.1812 -102.541 361.448 483.801
189 2 4.60313 18.7649 8.38935 319.399 -90.8747 432.907
190 1 6.21361 14.7508 7.23819 -276.581 379.581 -81.4953
191 1 6.21361 19.2666 9.04638 -153.624 -462.565 -173.446
192 1 7.21279 17.0087 5.43 396.115 -69.777 120.637
193 2 6.58431 17.6211 9.69255 -206.685 206.946 -377.574
194 2 8.45256 18.1526 6.05445 -68.0791 -248.922 -343.4
195 2 7.05812 19.5048 7.84635 210.976 49.5322 -296.22
196 2 6.58431 16.3964 6.65175 -118.974 -125.368 234.791
197 2 8.45256 15.8649 10.1812 -102.536 361.448 483.801
198 2 7.05813 14.5127 8.38935 319.398 -90.8748 432.907
199 1 8.6686 10.4986 7.23819 -276.591 379.581 -81.4954
200 1 8.66861 15.0145 9.04638 -153.634 -462.565 -173.446
201 1 9.66779 12.7566 5.43 396.116 -69.777 120.637
202 2 9.03931 13.3689 9.69255 -206.681 206.946 -377.574
203 2 9.51312 15.2526 7.84635 210.977 49.5322 -296.22
204 2 9.03931 12.1442 6.65175 -118.97 -125.368 234.791
205 2 9.51313 10.2605 8.38935 319.399 -90.8747 432.907
206 1 6.21361 23.2552 7.23819 -276.581 379.581 -81.4953
207 2 6.58431 24.9008 6.65175 -118.974 -125.368 234.791
208 2 8.45256 24.3693 10.1812 -102.536 361.448 483.801
209 2 7.05812 23.0171 8.38935 319.398 -90.8748 432.907
210 1 8.6686 19.003 7.23819 -276.591 379.581 -81.4954
211 1 8.6686 23.5188 9.04638 -153.634 -462.565 -173.446
212 1 9.66779 21.2609 5.43 396.116 -69.777 120.637
213 2 9.03931 21.8732 9.69255 -206.681 206.946 -377.574
214 2 9.51312 23.757 7.84635 210.977 49.5322 -296.22
215 2 9.03931 20.6486 6.65175 -118.97 -125.368 234.791
216 2 9.51313 18.7649 8.38935 319.399 -90.8747 432.907
217 2 1.08756 5.39602 11.4845 -68.0846 -248.923 -343.4
218 2 1.08756 3.10835 15.6112 -102.541 361.448 483.801
219 1 1.30361 2.25791 14.4764 -153.624 -462.565 -173.446
220 1 2.30279 0 10.86 396.115 -69.777 120.637
221 2 1.67431 0.612315 15.1226 -206.685 206.946 -377.574
222 2 3.54256 1.14384 11.4845 -68.0791 -248.922 -343.4
223 2 2.14812 2.49603 13.2763 210.976 49.5322 -296.22
224 2 1.08756 13.9004 11.4845 -68.0846 -248.923 -343.4
225 2 1.08756 11.6127 15.6112 -102.541 361.448 483.801
226 1 1.30361 6.24646 12.6682 -276.581 379.581 -81.4953
227 1 1.30361 10.7623 14.4764 -153.624 -462.565 -173.446
228 1 2.30279 8.50437 10.86 396.115 -69.777 120.637
229 2 1.67431 9.11668 15.1226 -206.685 206.946 -377.574
230 2 3.54256 9.64821 11.4845 -68.0791 -248.922 -343.4
231 2 2.14812 11.0004 13.2763 210.976 49.5322 -296.22
232 2 1.67431 7.89205 12.0817 -118.974 -125.368 234.791
233 2 3.54257 7.36053 15.6112 -102.536 361.448 483.801
234 2 2.14812 6.00834 13.8193 319.398 -90.8748 432.907
235 1 3.7586 1.99427 12.6682 -276.591 379.581 -81.4954
236 1 3.75861 6.51009 14.4764 -153.634 -462.565 -173.446
237 1 4.75779 4.25218 10.86 396.116 -69.777 120.637
238 2 4.12931 4.8645 15.1226 -206.681 206.946 -377.574
239 2 5.99756 5.39602 11.4845 -68.0846 -248.923 -343.4
240 2 4.60312 6.74822 13.2763 210.977 49.5322 -296.22
241 2 4.12931 3.63987 12.0817 -118.97 -125.368 234.791
242 2 5.99756 3.10835 15.6112 -102.541 361.448 483.801
243 2 4.60312 1.75615 13.8193 319.399 -90.8747 432.907
244 1 6.21361 2.25791 14.4764 -153.624 -462.565 -173.446
245 1 7.21279 0 10.86 396.115 -69.777 120.637
246 2 6.58431 0.612315 15.1226 -206.685 206.946 -377.574
247 2 8.45256 1.14384 11.4845 -68.0791 -248.922 -343.4
248 2 7.05812 2.49603 13.2763 210.976 49.5322 -296.22
249 2 1.08756 22.4048 11.4845 -68.0846 -248.923 -343.4
250 2 1.08756 20.1171 15.6112 -102.541 361.448 483.801
251 1 1.30361 14.7508 12.6682 -276.581 379.581 -81.4953
252 1 1.30361 19.2666 14.4764 -153.624 -462.565 -173.446
253 1 2.30279 17.0087 10.86 396.115 -69.777 120.637
254 2 1.67431 17.6211 15.1226 -206.685 206.946 -377.574
255 2 3.54256 18.1526 11.4845 -68.0791 -248.922 -343.4
256 2 2.14812 19.5048 13.2763 210.976 49.5322 -296.22
257 2 1.67431 16.3964 12.0817 -118.974 -125.368 234.791
258 2 3.54256 15.8649 15.6112 -102.536 361.448 483.801
259 2 2.14813 14.5127 13.8193 319.398 -90.8748 432.907
260 1 3.7586 10.4986 12.6682 -276.591 379.581 -81.4954
261 1 3.7586 15.0145 14.4764 -153.634 -462.565 -173.446
262 1 4.75779 12.7566 10.86 396.116 -69.777 120.637
263 2 4.12931 13.3689 15.1226 -206.681 206.946 -377.574
264 2 5.99756 13.9004 11.4845 -68.0846 -248.923 -343.4
265 2 4.60313 15.2526 13.2763 210.977 49.5322 -296.22
266 2 4.12931 12.1442 12.0817 -118.97 -125.368 234.791
267 2 5.99756 11.6127 15.6112 -102.541 361.448 483.801
268 2 4.60313 10.2605 13.8193 319.399 -90.8747 432.907
269 1 6.21361 6.24646 12.6682 -276.581 379.581 -81.4953
270 1 6.21361 10.7623 14.4764 -153.624 -462.565 -173.446
271 1 7.21279 8.50437 10.86 396.115 -69.777 120.637
272 2 6.58431 9.11668 15.1226 -206.685 206.946 -377.574
273 2 8.45256 9.64821 11.4845 -68.0791 -248.922 -343.4
274 2 7.05812 11.0004 13.2763 210.976 49.5322 -296.22
275 2 6.58431 7.89205 12.0817 -118.974 -125.368 234.791
276 2 8.45256 7.36053 15.6112 -102.536 361.448 483.801
277 2 7.05813 6.00834 13.8193 319.398 -90.8748 432.907
278 1 8.66861 1.99427 12.6682 -276.591 379.581 -81.4954
279 1 8.6686 6.51009 14.4764 -153.634 -462.565 -173.446
280 1 9.66779 4.25218 10.86 396.116 -69.777 120.637
281 2 9.03931 4.8645 15.1226 -206.681 206.946 -377.574
282 2 9.51312 6.74822 13.2763 210.977 49.5322 -296.22
283 2 9.03931 3.63987 12.0817 -118.97 -125.368 234.791
284 2 9.51313 1.75615 13.8193 319.399 -90.8747 432.907
285 1 1.30361 23.2552 12.6682 -276.581 379.581 -81.4953
286 2 1.67431 24.9008 12.0817 -118.974 -125.368 234.791
287 2 3.54256 24.3693 15.6112 -102.536 361.448 483.801
288 2 2.14813 23.0171 13.8193 319.398 -90.8748 432.907
289 1 3.75861 19.003 12.6682 -276.591 379.581 -81.4954
290 1 3.75861 23.5188 14.4764 -153.634 -462.565 -173.446
291 1 4.75779 21.2609 10.86 396.116 -69.777 120.637
292 2 4.12931 21.8732 15.1226 -206.681 206.946 -377.574
293 2 5.99757 22.4048 11.4845 -68.0846 -248.923 -343.4
294 2 4.60312 23.757 13.2763 210.977 49.5322 -296.22
295 2 4.12931 20.6486 12.0817 -118.97 -125.368 234.791
296 2 5.99756 20.1171 15.6112 -102.541 361.448 483.801
297 2 4.60313 18.7649 13.8193 319.399 -90.8747 432.907
298 1 6.21361 14.7508 12.6682 -276.581 379.581 -81.4953
299 1 6.21361 19.2666 14.4764 -153.624 -462.565 -173.446
300 1 7.21279 17.0087 10.86 396.115 -69.777 120.637
301 2 6.58431 17.6211 15.1226 -206.685 206.946 -377.574
302 2 8.45256 18.1526 11.4845 -68.0791 -248.922 -343.4
303 2 7.05812 19.5048 13.2763 210.976 49.5322 -296.22
304 2 6.58431 16.3964 12.0817 -118.974 -125.368 234.791
305 2 8.45256 15.8649 15.6112 -102.536 361.448 483.801
306 2 7.05813 14.5127 13.8193 319.398 -90.8748 432.907
307 1 8.6686 10.4986 12.6682 -276.591 379.581 -81.4954
308 1 8.66861 15.0145 14.4764 -153.634 -462.565 -173.446
309 1 9.66779 12.7566 10.86 396.116 -69.777 120.637
310 2 9.03931 13.3689 15.1226 -206.681 206.946 -377.574
311 2 9.51312 15.2526 13.2763 210.977 49.5322 -296.22
312 2 9.03931 12.1442 12.0817 -118.97 -125.368 234.791
313 2 9.51313 10.2605 13.8193 319.399 -90.8747 432.907
314 1 6.21361 23.2552 12.6682 -276.581 379.581 -81.4953
315 2 6.58431 24.9008 12.0817 -118.974 -125.368 234.791
316 2 8.45256 24.3693 15.6112 -102.536 361.448 483.801
317 2 7.05812 23.0171 13.8193 319.398 -90.8748 432.907
318 1 8.6686 19.003 12.6682 -276.591 379.581 -81.4954
319 1 8.6686 23.5188 14.4764 -153.634 -462.565 -173.446
320 1 9.66779 21.2609 10.86 396.116 -69.777 120.637
321 2 9.03931 21.8732 15.1226 -206.681 206.946 -377.574
322 2 9.51312 23.757 13.2763 210.977 49.5322 -296.22
323 2 9.03931 20.6486 12.0817 -118.97 -125.368 234.791
324 2 9.51313 18.7649 13.8193 319.399 -90.8747 432.907
325 2 1.08756 5.39602 16.9144 -68.0846 -248.923 -343.4
326 2 1.08756 3.10835 21.0412 -102.541 361.448 483.801
327 1 1.30361 2.25791 19.9064 -153.624 -462.565 -173.446
328 1 2.30279 0 16.29 396.115 -69.777 120.637
329 2 1.67431 0.612315 20.5526 -206.685 206.946 -377.574
330 2 3.54256 1.14384 16.9144 -68.0791 -248.922 -343.4
331 2 2.14812 2.49603 18.7063 210.976 49.5322 -296.22
332 2 1.08756 13.9004 16.9144 -68.0846 -248.923 -343.4
333 2 1.08756 11.6127 21.0412 -102.541 361.448 483.801
334 1 1.30361 6.24646 18.0982 -276.581 379.581 -81.4953
335 1 1.30361 10.7623 19.9064 -153.624 -462.565 -173.446
336 1 2.30279 8.50437 16.29 396.115 -69.777 120.637
337 2 1.67431 9.11668 20.5526 -206.685 206.946 -377.574
338 2 3.54256 9.64821 16.9144 -68.0791 -248.922 -343.4
339 2 2.14812 11.0004 18.7063 210.976 49.5322 -296.22
340 2 1.67431 7.89205 17.5117 -118.974 -125.368 234.791
341 2 3.54257 7.36053 21.0412 -102.536 361.448 483.801
342 2 2.14812 6.00834 19.2493 319.398 -90.8748 432.907
343 1 3.7586 1.99427 18.0982 -276.591 379.581 -81.4954
344 1 3.75861 6.51009 19.9064 -153.634 -462.565 -173.446
345 1 4.75779 4.25218 16.29 396.116 -69.777 120.637
346 2 4.12931 4.8645 20.5526 -206.681 206.946 -377.574
347 2 5.99756 5.39602 16.9144 -68.0846 -248.923 -343.4
348 2 4.60312 6.74822 18.7063 210.977 49.5322 -296.22
349 2 4.12931 3.63987 17.5117 -118.97 -125.368 234.791
350 2 5.99756 3.10835 21.0412 -102.541 361.448 483.801
351 2 4.60312 1.75615 19.2493 319.399 -90.8747 432.907
352 1 6.21361 2.25791 19.9064 -153.624 -462.565 -173.446
353 1 7.21279 0 16.29 396.115 -69.777 120.637
354 2 6.58431 0.612315 20.5526 -206.685 206.946 -377.574
355 2 8.45256 1.14384 16.9144 -68.0791 -248.922 -343.4
356 2 7.05812 2.49603 18.7063 210.976 49.5322 -296.22
357 2 1.08756 22.4048 16.9144 -68.0846 -248.923 -343.4
358 2 1.08756 20.1171 21.0412 -102.541 361.448 483.801
359 1 1.30361 14.7508 18.0982 -276.581 379.581 -81.4953
360 1 1.30361 19.2666 19.9064 -153.624 -462.565 -173.446
361 1 2.30279 17.0087 16.29 396.115 -69.777 120.637
362 2 1.67431 17.6211 20.5526 -206.685 206.946 -377.574
363 2 3.54256 18.1526 16.9144 -68.0791 -248.922 -343.4
364 2 2.14812 19.5048 18.7063 210.976 49.5322 -296.22
365 2 1.67431 16.3964 17.5117 -118.974 -125.368 234.791
366 2 3.54256 15.8649 21.0412 -102.536 361.448 483.801
367 2 2.14813 14.5127 19.2493 319.398 -90.8748 432.907
368 1 3.7586 10.4986 18.0982 -276.591 379.581 -81.4954
369 1 3.7586 15.0145 19.9064 -153.634 -462.565 -173.446
370 1 4.75779 12.7566 16.29 396.116 -69.777 120.637
371 2 4.12931 13.3689 20.5526 -206.681 206.946 -377.574
372 2 5.99756 13.9004 16.9144 -68.0846 -248.923 -343.4
373 2 4.60313 15.2526 18.7063 210.977 49.5322 -296.22
374 2 4.12931 12.1442 17.5117 -118.97 -125.368 234.791
375 2 5.99756 11.6127 21.0412 -102.541 361.448 483.801
376 2 4.60313 10.2605 19.2493 319.399 -90.8747 432.907
377 1 6.21361 6.24646 18.0982 -276.581 379.581 -81.4953
378 1 6.21361 10.7623 19.9064 -153.624 -462.565 -173.446
379 1 7.21279 8.50437 16.29 396.115 -69.777 120.637
380 2 6.58431 9.11668 20.5526 -206.685 206.946 -377.574
381 2 8.45256 9.64821 16.9144 -68.0791 -248.922 -343.4
382 2 7.05812 11.0004 18.7063 210.976 49.5322 -296.22
383 2 6.58431 7.89205 17.5117 -118.974 -125.368 234.791
384 2 8.45256 7.36053 21.0412 -102.536 361.448 483.801
385 2 7.05813 6.00834 19.2493 319.398 -90.8748 432.907
386 1 8.66861 1.99427 18.0982 -276.591 379.581 -81.4954
387 1 8.6686 6.51009 19.9064 -153.634 -462.565 -173.446
388 1 9.66779 4.25218 16.29 396.116 -69.777 120.637
389 2 9.03931 4.8645 20.5526 -206.681 206.946 -377.574
390 2 9.51312 6.74822 18.7063 210.977 49.5322 -296.22
391 2 9.03931 3.63987 17.5117 -118.97 -125.368 234.791
392 2 9.51313 1.75615 19.2493 319.399 -90.8747 432.907
393 1 1.30361 23.2552 18.0982 -276.581 379.581 -81.4953
394 2 1.67431 24.9008 17.5117 -118.974 -125.368 234.791
395 2 3.54256 24.3693 21.0412 -102.536 361.448 483.801
396 2 2.14813 23.0171 19.2493 319.398 -90.8748 432.907
397 1 3.75861 19.003 18.0982 -276.591 379.581 -81.4954
398 1 3.75861 23.5188 19.9064 -153.634 -462.565 -173.446
399 1 4.75779 21.2609 16.29 396.116 -69.777 120.637
400 2 4.12931 21.8732 20.5526 -206.681 206.946 -377.574
401 2 5.99757 22.4048 16.9144 -68.0846 -248.923 -343.4
402 2 4.60312 23.757 18.7063 210.977 49.5322 -296.22
403 2 4.12931 20.6486 17.5117 -118.97 -125.368 234.791
404 2 5.99756 20.1171 21.0412 -102.541 361.448 483.801
405 2 4.60313 18.7649 19.2493 319.399 -90.8747 432.907
406 1 6.21361 14.7508 18.0982 -276.581 379.581 -81.4953
407 1 6.21361 19.2666 19.9064 -153.624 -462.565 -173.446
408 1 7.21279 17.0087 16.29 396.115 -69.777 120.637
409 2 6.58431 17.6211 20.5526 -206.685 206.946 -377.574
410 2 8.45256 18.1526 16.9144 -68.0791 -248.922 -343.4
411 2 7.05812 19.5048 18.7063 210.976 49.5322 -296.22
412 2 6.58431 16.3964 17.5117 -118.974 -125.368 234.791
413 2 8.45256 15.8649 21.0412 -102.536 361.448 483.801
414 2 7.05813 14.5127 19.2493 319.398 -90.8748 432.907
415 1 8.6686 10.4986 18.0982 -276.591 379.581 -81.4954
416 1 8.66861 15.0145 19.9064 -153.634 -462.565 -173.446
417 1 9.66779 12.7566 16.29 396.116 -69.777 120.637
418 2 9.03931 13.3689 20.5526 -206.681 206.946 -377.574
419 2 9.51312 15.2526 18.7063 210.977 49.5322 -296.22
420 2 9.03931 12.1442 17.5117 -118.97 -125.368 234.791
421 2 9.51313 10.2605 19.2493 319.399 -90.8747 432.907
422 1 6.21361 23.2552 18.0982 -276.581 379.581 -81.4953
423 2 6.58431 24.9008 17.5117 -118.974 -125.368 234.791
424 2 8.45256 24.3693 21.0412 -102.536 361.448 483.801
425 2 7.05812 23.0171 19.2493 319.398 -90.8748 432.907
426 1 8.6686 19.003 18.0982 -276.591 379.581 -81.4954
427 1 8.6686 23.5188 19.9064 -153.634 -462.565 -173.446
428 1 9.66779 21.2609 16.29 396.116 -69.777 120.637
429 2 9.03931 21.8732 20.5526 -206.681 206.946 -377.574
430 2 9.51312 23.757 18.7063 210.977 49.5322 -296.22
431 2 9.03931 20.6486 17.5117 -118.97 -125.368 234.791
432 2 9.51313 18.7649 19.2493 319.399 -90.8747 432.907
ITEM: TIMESTEP
10
ITEM: NUMBER OF ATOMS
432
ITEM: BOX BOUNDS xy xz yz pp pp pp
0.0000000000000000e+00 9.8200000000000003e+00 0.0000000000000000e+00
0.0000000000000000e+00 2.5513108395489539e+01 0.0000000000000000e+00
0.0000000000000000e+00 2.1719999999999999e+01 0.0000000000000000e+00
ITEM: ATOMS id type x y z fx fy fz
1 2 1.23467 5.57304 0.504196 -1.34029 -2.28949 -1.04095
2 2 1.22731 2.95046 4.89799 0.151579 -4.12198 -4.36708
3 1 1.0667 1.8527 3.60718 0.628714 3.2594 4.01553
4 1 2.76918 0.00508606 -0.000702124 -0.677294 1.01891 -1.13226
5 2 1.73737 0.407567 4.14501 0.755799 0.238254 0.591141
6 2 3.68968 1.32085 0.504195 -1.34075 -2.28974 -1.04163
7 2 1.93091 2.52354 2.31222 -0.75961 0.0999693 1.15228
8 2 1.23467 14.0774 0.504196 -1.34029 -2.28949 -1.04095
9 2 1.22731 11.4548 4.89799 0.151579 -4.12198 -4.36708
10 1 1.07248 6.64786 1.80099 0.965622 0.887672 1.29213
11 1 1.0667 10.3571 3.60718 0.628714 3.2594 4.01553
12 1 2.76918 8.50946 -0.000702124 -0.677294 1.01891 -1.13226
13 2 1.73737 8.91194 4.14501 0.755799 0.238254 0.591141
14 2 3.68968 9.82522 0.504195 -1.34075 -2.28974 -1.04163
15 2 1.93091 11.0279 2.31222 -0.75961 0.0999693 1.15228
16 2 1.76448 8.09791 1.30061 -0.76974 -0.162731 -0.188213
17 2 3.68232 7.20265 4.89799 0.150982 -4.12122 -4.36613
18 2 1.92689 5.95932 3.09277 1.04839 1.06974 -0.323375
19 1 3.52747 2.39567 1.80098 0.963289 0.8876 1.29355
20 1 3.52169 6.10489 3.60719 0.630773 3.25825 4.01362
21 1 5.22418 4.25727 -0.000702141 -0.676467 1.01881 -1.13221
22 2 4.19238 4.65976 4.14501 0.754679 0.239776 0.589774
23 2 6.14467 5.57304 0.504196 -1.34029 -2.28949 -1.04095
24 2 4.38592 6.77573 2.31223 -0.76374 0.0995615 1.15496
25 2 4.21948 3.84572 1.30061 -0.769908 -0.162279 -0.187663
26 2 6.13731 2.95046 4.89799 0.151579 -4.12198 -4.36708
27 2 4.3819 1.70713 3.09276 1.04797 1.0695 -0.323469
28 1 5.9767 1.8527 3.60718 0.628714 3.2594 4.01553
29 1 7.67918 0.00508606 -0.000702124 -0.677294 1.01891 -1.13226
30 2 6.64737 0.407567 4.14501 0.755799 0.238254 0.591141
31 2 8.59968 1.32085 0.504195 -1.34075 -2.28974 -1.04163
32 2 6.84091 2.52354 2.31222 -0.75961 0.0999693 1.15228
33 2 1.23467 22.5818 0.504196 -1.34029 -2.28949 -1.04095
34 2 1.22731 19.9592 4.89799 0.151579 -4.12198 -4.36708
35 1 1.07248 15.1522 1.80099 0.965622 0.887672 1.29213
36 1 1.0667 18.8614 3.60718 0.628714 3.2594 4.01553
37 1 2.76918 17.0138 -0.000702124 -0.677294 1.01891 -1.13226
38 2 1.73737 17.4163 4.14501 0.755799 0.238254 0.591141
39 2 3.68968 18.3296 0.504195 -1.34075 -2.28974 -1.04163
40 2 1.93091 19.5323 2.31222 -0.75961 0.0999693 1.15228
41 2 1.76448 16.6023 1.30061 -0.76974 -0.162731 -0.188213
42 2 3.68232 15.707 4.89799 0.150982 -4.12122 -4.36613
43 2 1.92689 14.4637 3.09277 1.04839 1.06974 -0.323375
44 1 3.52747 10.9 1.80098 0.963289 0.8876 1.29355
45 1 3.52169 14.6093 3.60719 0.630773 3.25825 4.01362
46 1 5.22418 12.7616 -0.000702141 -0.676467 1.01881 -1.13221
47 2 4.19238 13.1641 4.14501 0.754679 0.239776 0.589774
48 2 6.14467 14.0774 0.504196 -1.34029 -2.28949 -1.04095
49 2 4.38592 15.2801 2.31223 -0.76374 0.0995615 1.15496
50 2 4.21948 12.3501 1.30061 -0.769908 -0.162279 -0.187663
51 2 6.13731 11.4548 4.89799 0.151579 -4.12198 -4.36708
52 2 4.3819 10.2115 3.09276 1.04797 1.0695 -0.323469
53 1 5.98248 6.64786 1.80099 0.965622 0.887672 1.29213
54 1 5.9767 10.3571 3.60718 0.628714 3.2594 4.01553
55 1 7.67918 8.50946 -0.000702124 -0.677294 1.01891 -1.13226
56 2 6.64737 8.91194 4.14501 0.755799 0.238254 0.591141
57 2 8.59968 9.82522 0.504195 -1.34075 -2.28974 -1.04163
58 2 6.84091 11.0279 2.31222 -0.75961 0.0999693 1.15228
59 2 6.67448 8.09791 1.30061 -0.76974 -0.162731 -0.188213
60 2 8.59232 7.20265 4.89799 0.150982 -4.12122 -4.36613
61 2 6.83689 5.95932 3.09277 1.04839 1.06974 -0.323375
62 1 8.43747 2.39567 1.80098 0.963289 0.8876 1.29355
63 1 8.43169 6.10489 3.60719 0.630773 3.25825 4.01362
64 1 10.1342 4.25727 -0.000702141 -0.676467 1.01881 -1.13221
65 2 9.10238 4.65976 4.14501 0.754679 0.239776 0.589774
66 2 9.29592 6.77573 2.31223 -0.76374 0.0995615 1.15496
67 2 9.12948 3.84572 1.30061 -0.769908 -0.162279 -0.187663
68 2 9.2919 1.70713 3.09276 1.04797 1.0695 -0.323469
69 1 1.07248 23.6566 1.80099 0.965622 0.887672 1.29213
70 2 1.76448 25.1067 1.30061 -0.76974 -0.162731 -0.188213
71 2 3.68232 24.2114 4.89799 0.150982 -4.12122 -4.36613
72 2 1.92689 22.9681 3.09277 1.04839 1.06974 -0.323375
73 1 3.52747 19.4044 1.80098 0.963289 0.8876 1.29355
74 1 3.52169 23.1136 3.60719 0.630773 3.25825 4.01362
75 1 5.22418 21.266 -0.000702141 -0.676467 1.01881 -1.13221
76 2 4.19238 21.6685 4.14501 0.754679 0.239776 0.589774
77 2 6.14467 22.5818 0.504196 -1.34029 -2.28949 -1.04095
78 2 4.38592 23.7845 2.31223 -0.76374 0.0995615 1.15496
79 2 4.21948 20.8545 1.30061 -0.769908 -0.162279 -0.187663
80 2 6.13731 19.9592 4.89799 0.151579 -4.12198 -4.36708
81 2 4.3819 18.7159 3.09276 1.04797 1.0695 -0.323469
82 1 5.98248 15.1522 1.80099 0.965622 0.887672 1.29213
83 1 5.9767 18.8614 3.60718 0.628714 3.2594 4.01553
84 1 7.67918 17.0138 -0.000702124 -0.677294 1.01891 -1.13226
85 2 6.64737 17.4163 4.14501 0.755799 0.238254 0.591141
86 2 8.59968 18.3296 0.504195 -1.34075 -2.28974 -1.04163
87 2 6.84091 19.5323 2.31222 -0.75961 0.0999693 1.15228
88 2 6.67448 16.6023 1.30061 -0.76974 -0.162731 -0.188213
89 2 8.59232 15.707 4.89799 0.150982 -4.12122 -4.36613
90 2 6.83689 14.4637 3.09277 1.04839 1.06974 -0.323375
91 1 8.43747 10.9 1.80098 0.963289 0.8876 1.29355
92 1 8.43169 14.6093 3.60719 0.630773 3.25825 4.01362
93 1 10.1342 12.7616 -0.000702141 -0.676467 1.01881 -1.13221
94 2 9.10238 13.1641 4.14501 0.754679 0.239776 0.589774
95 2 9.29592 15.2801 2.31223 -0.76374 0.0995615 1.15496
96 2 9.12948 12.3501 1.30061 -0.769908 -0.162279 -0.187663
97 2 9.2919 10.2115 3.09276 1.04797 1.0695 -0.323469
98 1 5.98248 23.6566 1.80099 0.965622 0.887672 1.29213
99 2 6.67448 25.1067 1.30061 -0.76974 -0.162731 -0.188213
100 2 8.59232 24.2114 4.89799 0.150982 -4.12122 -4.36613
101 2 6.83689 22.9681 3.09277 1.04839 1.06974 -0.323375
102 1 8.43747 19.4044 1.80098 0.963289 0.8876 1.29355
103 1 8.43169 23.1136 3.60719 0.630773 3.25825 4.01362
104 1 10.1342 21.266 -0.000702141 -0.676467 1.01881 -1.13221