ITEM: TIMESTEP
25
ITEM: NUMBER OF ATOMS
432
ITEM: BOX BOUNDS xy xz yz pp pp pp
0.0000000000000000e+00 9.8200000000000003e+00 0.0000000000000000e+00
0.0000000000000000e+00 2.5513108395489539e+01 0.0000000000000000e+00
0.0000000000000000e+00 2.1719999999999999e+01 0.0000000000000000e+00
ITEM: ATOMS id type x y z
1 2 1.22824 5.56525 0.509357
2 2 1.22753 2.94369 4.90224
3 1 1.07118 1.85656 3.61257
4 1 2.76616 0.00122741 -0.00565827
5 2 1.74533 0.407752 4.13548
6 2 3.68325 1.31306 0.509352
7 2 1.93301 2.53044 2.31919
10 1 1.0726 6.64747 1.80312
18 2 1.93257 5.96856 3.0947
19 1 3.52759 2.39528 1.80311
21 1 5.22117 4.25341 -0.00565844
22 2 4.20034 4.65995 4.13548
23 2 6.13824 5.56525 0.509357
25 2 4.20837 3.84435 1.28926
26 2 6.13753 2.94369 4.90224
27 2 4.38757 1.71637 3.0947
28 1 5.98118 1.85656 3.61257
29 1 7.67616 0.00122741 -0.00565827
30 2 6.65533 0.407752 4.13548
31 2 8.59325 1.31306 0.509352
32 2 6.84301 2.53044 2.31919
53 1 5.9826 6.64747 1.80312
61 2 6.84257 5.96856 3.0947
62 1 8.43759 2.39528 1.80311
64 1 10.1312 4.25341 -0.00565844
65 2 9.11034 4.65995 4.13548
67 2 9.11837 3.84435 1.28926
68 2 9.29757 1.71637 3.0947
109 2 1.22824 5.56525 5.93936
112 1 2.76616 0.00122741 5.42434
114 2 3.68325 1.31306 5.93935
118 1 1.0726 6.64747 7.23312
127 1 3.52759 2.39528 7.23311
129 1 5.22117 4.25341 5.42434
131 2 6.13824 5.56525 5.93936
133 2 4.20837 3.84435 6.71926
137 1 7.67616 0.00122741 5.42434
139 2 8.59325 1.31306 5.93935
161 1 5.9826 6.64747 7.23312
170 1 8.43759 2.39528 7.23311
172 1 10.1312 4.25341 5.42434
175 2 9.11837 3.84435 6.71926
9 2 1.22753 11.4481 4.90224
11 1 1.07118 10.3609 3.61257
12 1 2.76616 8.5056 -0.00565827
13 2 1.74533 8.91212 4.13548
14 2 3.68325 9.81743 0.509352
15 2 1.93301 11.0348 2.31919
16 2 1.75336 8.09654 1.28926
17 2 3.68254 7.19588 4.90225
20 1 3.52617 6.10874 3.61258
24 2 4.38802 6.78263 2.3192
44 1 3.52759 10.8996 1.80311
46 1 5.22117 12.7578 -0.00565844
50 2 4.20837 12.3487 1.28926
51 2 6.13753 11.4481 4.90224
52 2 4.38757 10.2207 3.0947
54 1 5.98118 10.3609 3.61257
55 1 7.67616 8.5056 -0.00565827
56 2 6.65533 8.91212 4.13548
57 2 8.59325 9.81743 0.509352
58 2 6.84301 11.0348 2.31919
59 2 6.66336 8.09654 1.28926
60 2 8.59254 7.19588 4.90225
63 1 8.43617 6.10874 3.61258
66 2 9.29802 6.78263 2.3192
91 1 8.43759 10.8996 1.80311
93 1 10.1312 12.7578 -0.00565844
96 2 9.11837 12.3487 1.28926
97 2 9.29757 10.2207 3.0947
120 1 2.76616 8.5056 5.42434
122 2 3.68325 9.81743 5.93935
124 2 1.75336 8.09654 6.71926
152 1 3.52759 10.8996 7.23311
154 1 5.22117 12.7578 5.42434
158 2 4.20837 12.3487 6.71926
163 1 7.67616 8.5056 5.42434
165 2 8.59325 9.81743 5.93935
167 2 6.66336 8.09654 6.71926
199 1 8.43759 10.8996 7.23311
201 1 10.1312 12.7578 5.42434
204 2 9.11837 12.3487 6.71926
8 2 1.22824 14.0696 0.509357
35 1 1.0726 15.1518 1.80312
37 1 2.76616 17.01 -0.00565827
38 2 1.74533 17.4165 4.13548
39 2 3.68325 18.3218 0.509352
41 2 1.75336 16.6009 1.28926
42 2 3.68254 15.7002 4.90225
43 2 1.93257 14.4729 3.0947
45 1 3.52617 14.6131 3.61258
47 2 4.20034 13.1643 4.13548
48 2 6.13824 14.0696 0.509357
49 2 4.38802 15.287 2.3192
73 1 3.52759 19.404 1.80311
81 2 4.38757 18.7251 3.0947
82 1 5.9826 15.1518 1.80312
84 1 7.67616 17.01 -0.00565827
85 2 6.65533 17.4165 4.13548
86 2 8.59325 18.3218 0.509352
88 2 6.66336 16.6009 1.28926
89 2 8.59254 15.7002 4.90225
90 2 6.84257 14.4729 3.0947
92 1 8.43617 14.6131 3.61258
94 2 9.11034 13.1643 4.13548
95 2 9.29802 15.287 2.3192
102 1 8.43759 19.404 1.80311
108 2 9.29757 18.7251 3.0947
116 2 1.22824 14.0696 5.93936
143 1 1.0726 15.1518 7.23312
145 1 2.76616 17.01 5.42434
147 2 3.68325 18.3218 5.93935
149 2 1.75336 16.6009 6.71926
156 2 6.13824 14.0696 5.93936
181 1 3.52759 19.404 7.23311
190 1 5.9826 15.1518 7.23312
192 1 7.67616 17.01 5.42434
194 2 8.59325 18.3218 5.93935
196 2 6.66336 16.6009 6.71926
210 1 8.43759 19.404 7.23311
33 2 1.22824 22.574 0.509357
34 2 1.22753 19.9524 4.90224
36 1 1.07118 18.8653 3.61257
40 2 1.93301 19.5392 2.31919
69 1 1.0726 23.6562 1.80312
70 2 1.75336 25.1053 1.28926
71 2 3.68254 24.2046 4.90225
72 2 1.93257 22.9773 3.0947
74 1 3.52617 23.1175 3.61258
75 1 5.22117 21.2622 -0.00565844
76 2 4.20034 21.6687 4.13548
77 2 6.13824 22.574 0.509357
78 2 4.38802 23.7914 2.3192
79 2 4.20837 20.8531 1.28926
80 2 6.13753 19.9524 4.90224
83 1 5.98118 18.8653 3.61257
87 2 6.84301 19.5392 2.31919
98 1 5.9826 23.6562 1.80312
99 2 6.66336 25.1053 1.28926
100 2 8.59254 24.2046 4.90225
101 2 6.84257 22.9773 3.0947
103 1 8.43617 23.1175 3.61258
104 1 10.1312 21.2622 -0.00565844
105 2 9.11034 21.6687 4.13548
106 2 9.29802 23.7914 2.3192
107 2 9.11837 20.8531 1.28926
141 2 1.22824 22.574 5.93936
177 1 1.0726 23.6562 7.23312
178 2 1.75336 25.1053 6.71926
183 1 5.22117 21.2622 5.42434
185 2 6.13824 22.574 5.93936
187 2 4.20837 20.8531 6.71926
206 1 5.9826 23.6562 7.23312
207 2 6.66336 25.1053 6.71926
212 1 10.1312 21.2622 5.42434
215 2 9.11837 20.8531 6.71926
110 2 1.22753 2.94369 10.3322
111 1 1.07118 1.85656 9.04257
113 2 1.74533 0.407752 9.56548
115 2 1.93301 2.53044 7.74919
126 2 1.93257 5.96856 8.5247
130 2 4.20034 4.65995 9.56548
134 2 6.13753 2.94369 10.3322
135 2 4.38757 1.71637 8.5247
136 1 5.98118 1.85656 9.04257
138 2 6.65533 0.407752 9.56548
140 2 6.84301 2.53044 7.74919
169 2 6.84257 5.96856 8.5247
173 2 9.11034 4.65995 9.56548
176 2 9.29757 1.71637 8.5247
217 2 1.22824 5.56525 11.3694
219 1 1.07118 1.85656 14.4726
220 1 2.76616 0.00122741 10.8543
222 2 3.68325 1.31306 11.3694
223 2 1.93301 2.53044 13.1792
226 1 1.0726 6.64747 12.6631
234 2 1.93257 5.96856 13.9547
235 1 3.52759 2.39528 12.6631
237 1 5.22117 4.25341 10.8543
239 2 6.13824 5.56525 11.3694
241 2 4.20837 3.84435 12.1493
243 2 4.38757 1.71637 13.9547
244 1 5.98118 1.85656 14.4726
245 1 7.67616 0.00122741 10.8543
247 2 8.59325 1.31306 11.3694
248 2 6.84301 2.53044 13.1792
269 1 5.9826 6.64747 12.6631
277 2 6.84257 5.96856 13.9547
278 1 8.43759 2.39528 12.6631
280 1 10.1312 4.25341 10.8543
283 2 9.11837 3.84435 12.1493
284 2 9.29757 1.71637 13.9547
117 2 1.22753 11.4481 10.3322
119 1 1.07118 10.3609 9.04257
121 2 1.74533 8.91212 9.56548
123 2 1.93301 11.0348 7.74919
125 2 3.68254 7.19588 10.3322
128 1 3.52617 6.10874 9.04258
132 2 4.38802 6.78263 7.7492
159 2 6.13753 11.4481 10.3322
160 2 4.38757 10.2207 8.5247
162 1 5.98118 10.3609 9.04257
164 2 6.65533 8.91212 9.56548
166 2 6.84301 11.0348 7.74919
168 2 8.59254 7.19588 10.3322
171 1 8.43617 6.10874 9.04258
174 2 9.29802 6.78263 7.7492
205 2 9.29757 10.2207 8.5247
227 1 1.07118 10.3609 14.4726
228 1 2.76616 8.5056 10.8543
230 2 3.68325 9.81743 11.3694
231 2 1.93301 11.0348 13.1792
232 2 1.75336 8.09654 12.1493
236 1 3.52617 6.10874 14.4726
240 2 4.38802 6.78263 13.1792
260 1 3.52759 10.8996 12.6631
262 1 5.22117 12.7578 10.8543
266 2 4.20837 12.3487 12.1493
268 2 4.38757 10.2207 13.9547
270 1 5.98118 10.3609 14.4726
271 1 7.67616 8.5056 10.8543
273 2 8.59325 9.81743 11.3694
274 2 6.84301 11.0348 13.1792
275 2 6.66336 8.09654 12.1493
279 1 8.43617 6.10874 14.4726
282 2 9.29802 6.78263 13.1792
307 1 8.43759 10.8996 12.6631
309 1 10.1312 12.7578 10.8543
312 2 9.11837 12.3487 12.1493
313 2 9.29757 10.2207 13.9547
146 2 1.74533 17.4165 9.56548
150 2 3.68254 15.7002 10.3322
151 2 1.93257 14.4729 8.5247
153 1 3.52617 14.6131 9.04258
155 2 4.20034 13.1643 9.56548
157 2 4.38802 15.287 7.7492
189 2 4.38757 18.7251 8.5247
193 2 6.65533 17.4165 9.56548
197 2 8.59254 15.7002 10.3322
198 2 6.84257 14.4729 8.5247
200 1 8.43617 14.6131 9.04258
202 2 9.11034 13.1643 9.56548
203 2 9.29802 15.287 7.7492
216 2 9.29757 18.7251 8.5247
224 2 1.22824 14.0696 11.3694
251 1 1.0726 15.1518 12.6631
253 1 2.76616 17.01 10.8543
255 2 3.68325 18.3218 11.3694
257 2 1.75336 16.6009 12.1493
259 2 1.93257 14.4729 13.9547
261 1 3.52617 14.6131 14.4726
264 2 6.13824 14.0696 11.3694
265 2 4.38802 15.287 13.1792
289 1 3.52759 19.404 12.6631
297 2 4.38757 18.7251 13.9547
298 1 5.9826 15.1518 12.6631
300 1 7.67616 17.01 10.8543
302 2 8.59325 18.3218 11.3694
304 2 6.66336 16.6009 12.1493
306 2 6.84257 14.4729 13.9547
308 1 8.43617 14.6131 14.4726
311 2 9.29802 15.287 13.1792
318 1 8.43759 19.404 12.6631
324 2 9.29757 18.7251 13.9547
142 2 1.22753 19.9524 10.3322
144 1 1.07118 18.8653 9.04257
148 2 1.93301 19.5392 7.74919
179 2 3.68254 24.2046 10.3322
180 2 1.93257 22.9773 8.5247
182 1 3.52617 23.1175 9.04258
184 2 4.20034 21.6687 9.56548
186 2 4.38802 23.7914 7.7492
188 2 6.13753 19.9524 10.3322
191 1 5.98118 18.8653 9.04257
195 2 6.84301 19.5392 7.74919
208 2 8.59254 24.2046 10.3322
209 2 6.84257 22.9773 8.5247
211 1 8.43617 23.1175 9.04258
213 2 9.11034 21.6687 9.56548
214 2 9.29802 23.7914 7.7492
249 2 1.22824 22.574 11.3694
252 1 1.07118 18.8653 14.4726
256 2 1.93301 19.5392 13.1792
285 1 1.0726 23.6562 12.6631
286 2 1.75336 25.1053 12.1493
288 2 1.93257 22.9773 13.9547
290 1 3.52617 23.1175 14.4726
291 1 5.22117 21.2622 10.8543
293 2 6.13824 22.574 11.3694
294 2 4.38802 23.7914 13.1792
295 2 4.20837 20.8531 12.1493
299 1 5.98118 18.8653 14.4726
303 2 6.84301 19.5392 13.1792
314 1 5.9826 23.6562 12.6631
315 2 6.66336 25.1053 12.1493
317 2 6.84257 22.9773 13.9547
319 1 8.43617 23.1175 14.4726
320 1 10.1312 21.2622 10.8543
322 2 9.29802 23.7914 13.1792
323 2 9.11837 20.8531 12.1493
218 2 1.22753 2.94369 15.7622
221 2 1.74533 0.407752 14.9955
238 2 4.20034 4.65995 14.9955
242 2 6.13753 2.94369 15.7622
246 2 6.65533 0.407752 14.9955
281 2 9.11034 4.65995 14.9955
325 2 1.22824 5.56525 16.7994
326 2 1.22753 2.94369 21.1922
327 1 1.07118 1.85656 19.9026
328 1 2.76616 0.00122741 16.2843
329 2 1.74533 0.407752 20.4255
330 2 3.68325 1.31306 16.7994
331 2 1.93301 2.53044 18.6092
334 1 1.0726 6.64747 18.0931
342 2 1.93257 5.96856 19.3847
343 1 3.52759 2.39528 18.0931
345 1 5.22117 4.25341 16.2843
346 2 4.20034 4.65995 20.4255
347 2 6.13824 5.56525 16.7994
349 2 4.20837 3.84435 17.5793
350 2 6.13753 2.94369 21.1922
351 2 4.38757 1.71637 19.3847
352 1 5.98118 1.85656 19.9026
353 1 7.67616 0.00122741 16.2843
354 2 6.65533 0.407752 20.4255
355 2 8.59325 1.31306 16.7994
356 2 6.84301 2.53044 18.6092
377 1 5.9826 6.64747 18.0931
385 2 6.84257 5.96856 19.3847
386 1 8.43759 2.39528 18.0931
388 1 10.1312 4.25341 16.2843
389 2 9.11034 4.65995 20.4255
391 2 9.11837 3.84435 17.5793
392 2 9.29757 1.71637 19.3847
225 2 1.22753 11.4481 15.7622
229 2 1.74533 8.91212 14.9955
233 2 3.68254 7.19588 15.7622
267 2 6.13753 11.4481 15.7622
272 2 6.65533 8.91212 14.9955
276 2 8.59254 7.19588 15.7622
333 2 1.22753 11.4481 21.1922
335 1 1.07118 10.3609 19.9026
336 1 2.76616 8.5056 16.2843
337 2 1.74533 8.91212 20.4255
338 2 3.68325 9.81743 16.7994
339 2 1.93301 11.0348 18.6092
340 2 1.75336 8.09654 17.5793
341 2 3.68254 7.19588 21.1922
344 1 3.52617 6.10874 19.9026
348 2 4.38802 6.78263 18.6092
368 1 3.52759 10.8996 18.0931
370 1 5.22117 12.7578 16.2843
374 2 4.20837 12.3487 17.5793
375 2 6.13753 11.4481 21.1922
376 2 4.38757 10.2207 19.3847
378 1 5.98118 10.3609 19.9026
379 1 7.67616 8.5056 16.2843
380 2 6.65533 8.91212 20.4255
381 2 8.59325 9.81743 16.7994
382 2 6.84301 11.0348 18.6092
383 2 6.66336 8.09654 17.5793
384 2 8.59254 7.19588 21.1922
387 1 8.43617 6.10874 19.9026
390 2 9.29802 6.78263 18.6092
415 1 8.43759 10.8996 18.0931
417 1 10.1312 12.7578 16.2843
420 2 9.11837 12.3487 17.5793
421 2 9.29757 10.2207 19.3847
254 2 1.74533 17.4165 14.9955
258 2 3.68254 15.7002 15.7622
263 2 4.20034 13.1643 14.9955
301 2 6.65533 17.4165 14.9955
305 2 8.59254 15.7002 15.7622
310 2 9.11034 13.1643 14.9955
332 2 1.22824 14.0696 16.7994
359 1 1.0726 15.1518 18.0931
361 1 2.76616 17.01 16.2843
362 2 1.74533 17.4165 20.4255
363 2 3.68325 18.3218 16.7994
365 2 1.75336 16.6009 17.5793
366 2 3.68254 15.7002 21.1922
367 2 1.93257 14.4729 19.3847
369 1 3.52617 14.6131 19.9026
371 2 4.20034 13.1643 20.4255
372 2 6.13824 14.0696 16.7994
373 2 4.38802 15.287 18.6092
397 1 3.52759 19.404 18.0931
405 2 4.38757 18.7251 19.3847
406 1 5.9826 15.1518 18.0931
408 1 7.67616 17.01 16.2843
409 2 6.65533 17.4165 20.4255
410 2 8.59325 18.3218 16.7994
412 2 6.66336 16.6009 17.5793
413 2 8.59254 15.7002 21.1922
414 2 6.84257 14.4729 19.3847
416 1 8.43617 14.6131 19.9026
418 2 9.11034 13.1643 20.4255
419 2 9.29802 15.287 18.6092
426 1 8.43759 19.404 18.0931
432 2 9.29757 18.7251 19.3847
250 2 1.22753 19.9524 15.7622
287 2 3.68254 24.2046 15.7622
292 2 4.20034 21.6687 14.9955
296 2 6.13753 19.9524 15.7622
316 2 8.59254 24.2046 15.7622
321 2 9.11034 21.6687 14.9955
357 2 1.22824 22.574 16.7994
358 2 1.22753 19.9524 21.1922
360 1 1.07118 18.8653 19.9026
364 2 1.93301 19.5392 18.6092
393 1 1.0726 23.6562 18.0931
394 2 1.75336 25.1053 17.5793
395 2 3.68254 24.2046 21.1922
396 2 1.93257 22.9773 19.3847
398 1 3.52617 23.1175 19.9026
399 1 5.22117 21.2622 16.2843
400 2 4.20034 21.6687 20.4255
401 2 6.13824 22.574 16.7994
402 2 4.38802 23.7914 18.6092
403 2 4.20837 20.8531 17.5793
404 2 6.13753 19.9524 21.1922
407 1 5.98118 18.8653 19.9026
411 2 6.84301 19.5392 18.6092
422 1 5.9826 23.6562 18.0931
423 2 6.66336 25.1053 17.5793
424 2 8.59254 24.2046 21.1922
425 2 6.84257 22.9773 19.3847
427 1 8.43617 23.1175 19.9026
428 1 10.1312 21.2622 16.2843
429 2 9.11034 21.6687 20.4255
430 2 9.29802 23.7914 18.6092
431 2 9.11837 20.8531 17.5793
