LAMMPS (22 Jul 2025)
OMP_NUM_THREADS environment is not set. Defaulting to 1 thread.
  using 1 OpenMP thread(s) per MPI task
Loaded 1 plugins from C:\Users\Home\AppData\Local\LAMMPS 64-bit 22Jul2025 with GUI\plugins
# Compute elastic constant tensor for a crystal
#
# Written by Aidan Thompson (Sandia, athomps@sandia.gov)
#
#  This script uses the following three include files.
#
#   init.mod      (must be modified for different crystal structures)
# 	       	  Define units, deformation parameters and initial
#		  configuration of the atoms and simulation cell.
#
#
#   potential.mod    (must be modified for different pair styles)
# 		     Define pair style and other attributes
#		     not stored in restart file
#
#
#   displace.mod    (displace.mod should not need to be modified)
# 		    Perform positive and negative box displacements
# 		    in direction ${dir} and size ${up}.
# 		    It uses the resultant changes
#		    in stress to compute one
# 		    row of the elastic stiffness tensor
#
#		    Inputs variables:
#		    	   dir = the Voigt deformation component
#		    		    (1,2,3,4,5,6)
#		    Global constants:
#       	    	   up = the deformation magnitude (strain units)
#       		   cfac = conversion from LAMMPS pressure units to
#               	   output units for elastic constants
#
#
#  To run this on a different system, it should only be necessary to
#  modify the files init.mod and potential.mod. In order to calculate
#  the elastic constants correctly, care must be taken to specify
#  the correct units in init.mod (units, cfac and cunits). It is also
#  important to verify that the minimization of energy w.r.t atom
#  positions in the deformed cell is fully converged.
#  One indication of this is that the elastic constants are insensitive
#  to the choice of the variable ${up} in init.mod. Another is to check
#  the final max and two-norm forces reported in the log file. If you know
#  that minimization is not required, you can set maxiter = 0.0 in
#  init.mod.
#

include init.mod
# NOTE: This script can be modified for different atomic structures,
# units, etc. See in.elastic for more info.
#

# Define the finite deformation size. Try several values of this
# variable to verify that results do not depend on it.
variable up equal 1.0e-6

# Define the amount of random jiggle for atoms
# This prevents atoms from staying on saddle points
variable atomjiggle equal 1.0e-5

# Uncomment one of these blocks, depending on what units
# you are using in LAMMPS and for output

# metal units, elastic constants in eV/A^3
#units		metal
#variable cfac equal 6.2414e-7
#variable cunits string eV/A^3

# metal units, elastic constants in GPa
units		metal
variable cfac equal 1.0e-4
variable cunits string GPa

# real units, elastic constants in GPa
#units		real
#variable cfac equal 1.01325e-4
#variable cunits string GPa

# Define minimization parameters
variable etol equal 0.0
variable ftol equal 1.0e-10
variable maxiter equal 100
variable maxeval equal 1000
variable dmax equal 1.0e-2

# generate the box and atom positions using a diamond lattice
variable a equal 5.43

boundary	p p p

lattice         diamond $a
lattice         diamond 5.43
Lattice spacing in x,y,z = 5.43 5.43 5.43
region		box prism 0 2.0 0 3.0 0 4.0 0.0 0.0 0.0
create_box	1 box
Created triclinic box = (0 0 0) to (10.86 16.29 21.72) with tilt (0 0 0)
  1 by 1 by 1 MPI processor grid
create_atoms	1 box
Created 192 atoms
  using lattice units in triclinic box = (0 0 0) to (10.86 16.29 21.72) with tilt (0 0 0)
  create_atoms CPU = 0.000 seconds

# Need to set mass to something, just to satisfy LAMMPS
mass 1 1.0e-20

include potential.mod
# NOTE: This script can be modified for different pair styles
# See in.elastic for more info.

# Choose potential
pair_style	sw
pair_coeff * * Si.sw Si
Reading sw potential file Si.sw with DATE: 2007-06-11

# Setup neighbor style
neighbor 1.0 nsq
neigh_modify once no every 1 delay 0 check yes

# Setup minimization style
min_style	     cg
min_modify	     dmax ${dmax} line quadratic
min_modify	     dmax 0.01 line quadratic

# Setup output
thermo		1
thermo_style custom step temp pe press pxx pyy pzz pxy pxz pyz lx ly lz vol
thermo_modify norm no

# Compute initial state
fix 3 all box/relax  aniso 0.0
minimize ${etol} ${ftol} ${maxiter} ${maxeval}
minimize 0 ${ftol} ${maxiter} ${maxeval}
minimize 0 1e-10 ${maxiter} ${maxeval}
minimize 0 1e-10 100 ${maxeval}
minimize 0 1e-10 100 1000
Neighbor list info ...
  update: every = 1 steps, delay = 0 steps, check = yes
  max neighbors/atom: 2000, page size: 100000
  master list distance cutoff = 4.77118
  ghost atom cutoff = 4.77118
  1 neighbor lists, perpetual/occasional/extra = 1 0 0
  (1) pair sw, perpetual
      attributes: full, newton on
      pair build: full/nsq
      stencil: none
      bin: none
WARNING: Energy due to 3 extra global DOFs will be included in minimizer energies
 (src/min.cpp:222)
Per MPI rank memory allocation (min/avg/max) = 4.178 | 4.178 | 4.178 Mbytes
   Step          Temp          PotEng         Press           Pxx            Pyy            Pzz            Pxy            Pxz            Pyz             Lx             Ly             Lz           Volume    
         0   0             -832.62686      532.56802      532.56802      532.56802      532.56802      2.3203668e-11 -1.5470312e-11  1.2109072e-11  10.86          16.29          21.72          3842.4722    
         1   0             -832.62714      227.98084      227.98084      227.98084      227.98084      2.8888074e-10 -9.9553613e-11  4.6174987e-11  10.861086      16.291629      21.722172      3843.625     
         2   0             -832.6272      -0.016514738   -0.016514738   -0.016514738   -0.016514738   -5.4998614e-11  1.0190689e-10 -4.4865142e-11  10.8619        16.292849      21.723799      3844.4889    
         3   0             -832.6272      -1.8901286e-06 -1.8901472e-06 -1.8900942e-06 -1.8901445e-06  1.326437e-10   5.5328032e-12 -1.7312491e-10  10.8619        16.292849      21.723799      3844.4888    
         4   0             -832.6272      -1.9966172e-10 -1.9849617e-10 -2.0361919e-10 -1.9686981e-10  1.3456502e-10  3.8429563e-11 -2.9961426e-10  10.8619        16.292849      21.723799      3844.4888    
Loop time of 0.002836 on 1 procs for 4 steps with 192 atoms

551.0% CPU use with 1 MPI tasks x 1 OpenMP threads

Minimization stats:
  Stopping criterion = force tolerance
  Energy initial, next-to-last, final = 
     -832.626864929172  -832.627199984116  -832.627199984116
  Force two-norm initial, final = 2.2122596 1.0848665e-12
  Force max component initial, final = 1.2772487 4.8850722e-13
  Final line search alpha, max atom move = 1 4.8850722e-13
  Iterations, force evaluations = 4 7

MPI task timing breakdown:
Section |  min time  |  avg time  |  max time  |%varavg| %total
---------------------------------------------------------------
Pair    | 0.001767   | 0.001767   | 0.001767   |   0.0 | 62.31
Neigh   | 0          | 0          | 0          |   0.0 |  0.00
Comm    | 3.1e-05    | 3.1e-05    | 3.1e-05    |   0.0 |  1.09
Output  | 0.000543   | 0.000543   | 0.000543   |   0.0 | 19.15
Modify  | 0          | 0          | 0          |   0.0 |  0.00
Other   |            | 0.000495   |            |       | 17.45

Nlocal:            192 ave         192 max         192 min
Histogram: 1 0 0 0 0 0 0 0 0 0
Nghost:            634 ave         634 max         634 min
Histogram: 1 0 0 0 0 0 0 0 0 0
Neighs:              0 ave           0 max           0 min
Histogram: 1 0 0 0 0 0 0 0 0 0
FullNghs:         5376 ave        5376 max        5376 min
Histogram: 1 0 0 0 0 0 0 0 0 0

Total # of neighbors = 5376
Ave neighs/atom = 28
Neighbor list builds = 0
Dangerous builds = 0

variable tmp equal pxx
variable pxx0 equal ${tmp}
variable pxx0 equal -1.98496169012797e-10
variable tmp equal pyy
variable pyy0 equal ${tmp}
variable pyy0 equal -2.03619187865091e-10
variable tmp equal pzz
variable pzz0 equal ${tmp}
variable pzz0 equal -1.96869813821597e-10
variable tmp equal pyz
variable pyz0 equal ${tmp}
variable pyz0 equal -2.99614263451085e-10
variable tmp equal pxz
variable pxz0 equal ${tmp}
variable pxz0 equal 3.84295634088061e-11
variable tmp equal pxy
variable pxy0 equal ${tmp}
variable pxy0 equal 1.34565024467546e-10

variable tmp equal lx
variable lx0 equal ${tmp}
variable lx0 equal 10.8618995568104
variable tmp equal ly
variable ly0 equal ${tmp}
variable ly0 equal 16.2928493352156
variable tmp equal lz
variable lz0 equal ${tmp}
variable lz0 equal 21.7237991136209

# These formulas define the derivatives w.r.t. strain components
# Constants uses $, variables use v_
variable d1 equal -(v_pxx1-${pxx0})/(v_delta/v_len0)*${cfac}
variable d1 equal -(v_pxx1--1.98496169012797e-10)/(v_delta/v_len0)*${cfac}
variable d1 equal -(v_pxx1--1.98496169012797e-10)/(v_delta/v_len0)*0.0001
variable d2 equal -(v_pyy1-${pyy0})/(v_delta/v_len0)*${cfac}
variable d2 equal -(v_pyy1--2.03619187865091e-10)/(v_delta/v_len0)*${cfac}
variable d2 equal -(v_pyy1--2.03619187865091e-10)/(v_delta/v_len0)*0.0001
variable d3 equal -(v_pzz1-${pzz0})/(v_delta/v_len0)*${cfac}
variable d3 equal -(v_pzz1--1.96869813821597e-10)/(v_delta/v_len0)*${cfac}
variable d3 equal -(v_pzz1--1.96869813821597e-10)/(v_delta/v_len0)*0.0001
variable d4 equal -(v_pyz1-${pyz0})/(v_delta/v_len0)*${cfac}
variable d4 equal -(v_pyz1--2.99614263451085e-10)/(v_delta/v_len0)*${cfac}
variable d4 equal -(v_pyz1--2.99614263451085e-10)/(v_delta/v_len0)*0.0001
variable d5 equal -(v_pxz1-${pxz0})/(v_delta/v_len0)*${cfac}
variable d5 equal -(v_pxz1-3.84295634088061e-11)/(v_delta/v_len0)*${cfac}
variable d5 equal -(v_pxz1-3.84295634088061e-11)/(v_delta/v_len0)*0.0001
variable d6 equal -(v_pxy1-${pxy0})/(v_delta/v_len0)*${cfac}
variable d6 equal -(v_pxy1-1.34565024467546e-10)/(v_delta/v_len0)*${cfac}
variable d6 equal -(v_pxy1-1.34565024467546e-10)/(v_delta/v_len0)*0.0001

displace_atoms all random ${atomjiggle} ${atomjiggle} ${atomjiggle} 87287 units box
displace_atoms all random 1e-05 ${atomjiggle} ${atomjiggle} 87287 units box
displace_atoms all random 1e-05 1e-05 ${atomjiggle} 87287 units box
displace_atoms all random 1e-05 1e-05 1e-05 87287 units box
Displacing atoms ...

# Write restart
unfix 3
write_restart restart.equil
System init for write_restart ...

# uxx Perturbation

variable dir equal 1
include displace.mod
# NOTE: This script should not need to be
# modified. See in.elastic for more info.
#
# Find which reference length to use

if "${dir} == 1" then    "variable len0 equal ${lx0}"
variable len0 equal ${lx0}
variable len0 equal 10.8618995568104
if "${dir} == 2" then    "variable len0 equal ${ly0}"
if "${dir} == 3" then    "variable len0 equal ${lz0}"
if "${dir} == 4" then    "variable len0 equal ${lz0}"
if "${dir} == 5" then    "variable len0 equal ${lz0}"
if "${dir} == 6" then    "variable len0 equal ${ly0}"

# Reset box and simulation parameters

clear
OMP_NUM_THREADS environment is not set. Defaulting to 1 thread.
  using 1 OpenMP thread(s) per MPI task
Restoring plugin: Hello world command v1.1 by Axel Kohlmeyer (akohlmey@gmail.com)
WARNING: Overriding built-in command style hello from plugin (src/PLUGIN/plugin.cpp:556)
Loaded 1 plugins from C:\Users\Home\AppData\Local\LAMMPS 64-bit 22Jul2025 with GUI\plugins
box tilt large

The 'box' command has been removed and will be ignored

read_restart restart.equil
Reading restart file ...
  restart file = 22 Jul 2025, LAMMPS = 22 Jul 2025
  restoring atom style atomic from restart
  triclinic box = (-0.00094977841 -0.0014246676 -0.0018995568) to (10.86095 16.291425 21.7219) with tilt (0 0 0)
  1 by 1 by 1 MPI processor grid
  pair style sw stores no restart info
  192 atoms
  read_restart CPU = 0.001 seconds
include potential.mod
# NOTE: This script can be modified for different pair styles
# See in.elastic for more info.

# Choose potential
pair_style	sw
pair_coeff * * Si.sw Si
Reading sw potential file Si.sw with DATE: 2007-06-11

# Setup neighbor style
neighbor 1.0 nsq
neigh_modify once no every 1 delay 0 check yes

# Setup minimization style
min_style	     cg
min_modify	     dmax ${dmax} line quadratic
min_modify	     dmax 0.01 line quadratic

# Setup output
thermo		1
thermo_style custom step temp pe press pxx pyy pzz pxy pxz pyz lx ly lz vol
thermo_modify norm no

# Negative deformation

variable delta equal -${up}*${len0}
variable delta equal -1e-06*${len0}
variable delta equal -1e-06*10.8618995568104
variable deltaxy equal -${up}*xy
variable deltaxy equal -1e-06*xy
variable deltaxz equal -${up}*xz
variable deltaxz equal -1e-06*xz
variable deltayz equal -${up}*yz
variable deltayz equal -1e-06*yz
if "${dir} == 1" then    "change_box all x delta 0 ${delta} xy delta ${deltaxy} xz delta ${deltaxz} remap units box"
change_box all x delta 0 ${delta} xy delta ${deltaxy} xz delta ${deltaxz} remap units box
change_box all x delta 0 -1.08618995568104e-05 xy delta ${deltaxy} xz delta ${deltaxz} remap units box
change_box all x delta 0 -1.08618995568104e-05 xy delta 0 xz delta ${deltaxz} remap units box
change_box all x delta 0 -1.08618995568104e-05 xy delta 0 xz delta 0 remap units box
Changing box ...
  triclinic box = (-0.00094977841 -0.0014246676 -0.0018995568) to (10.860939 16.291425 21.7219) with tilt (0 0 0)
  triclinic box = (-0.00094977841 -0.0014246676 -0.0018995568) to (10.860939 16.291425 21.7219) with tilt (0 0 0)
  triclinic box = (-0.00094977841 -0.0014246676 -0.0018995568) to (10.860939 16.291425 21.7219) with tilt (0 0 0)
if "${dir} == 2" then    "change_box all y delta 0 ${delta} yz delta ${deltayz} remap units box"
if "${dir} == 3" then    "change_box all z delta 0 ${delta} remap units box"
if "${dir} == 4" then    "change_box all yz delta ${delta} remap units box"
if "${dir} == 5" then    "change_box all xz delta ${delta} remap units box"
if "${dir} == 6" then    "change_box all xy delta ${delta} remap units box"

# Relax atoms positions

minimize ${etol} ${ftol} ${maxiter} ${maxeval}
minimize 0 ${ftol} ${maxiter} ${maxeval}
minimize 0 1e-10 ${maxiter} ${maxeval}
minimize 0 1e-10 100 ${maxeval}
minimize 0 1e-10 100 1000
Neighbor list info ...
  update: every = 1 steps, delay = 0 steps, check = yes
  max neighbors/atom: 2000, page size: 100000
  master list distance cutoff = 4.77118
  ghost atom cutoff = 4.77118
  1 neighbor lists, perpetual/occasional/extra = 1 0 0
  (1) pair sw, perpetual
      attributes: full, newton on
      pair build: full/nsq
      stencil: none
      bin: none
Per MPI rank memory allocation (min/avg/max) = 4.178 | 4.178 | 4.178 Mbytes
   Step          Temp          PotEng         Press           Pxx            Pyy            Pzz            Pxy            Pxz            Pyz             Lx             Ly             Lz           Volume    
         4   0             -832.6272       1.0142891      1.5143077      0.76427905     0.7642806     -0.16411795    -0.36432933     0.46826119     10.861889      16.292849      21.723799      3844.485     
         5   0             -832.6272       1.014232       1.5142483      0.76422371     0.76422389     0.040933679    0.090901327   -0.11681858     10.861889      16.292849      21.723799      3844.485     
         6   0             -832.6272       1.0142303      1.5142463      0.76422205     0.76422243    -0.0368769     -0.08190877     0.10525361     10.861889      16.292849      21.723799      3844.485     
         7   0             -832.6272       1.0142305      1.5142464      0.7642224      0.76422261     0.030627251    0.068031442   -0.087419731    10.861889      16.292849      21.723799      3844.485     
         8   0             -832.6272       1.0142306      1.5142465      0.76422265     0.76422268    -0.019933869   -0.044281383    0.056900107    10.861889      16.292849      21.723799      3844.485     
         9   0             -832.6272       1.0142306      1.5142465      0.76422265     0.76422268     0.015671549    0.034814659   -0.044735196    10.861889      16.292849      21.723799      3844.485     
        10   0             -832.6272       1.0142306      1.5142465      0.7642227      0.76422268    -0.012301107   -0.027328079    0.035115049    10.861889      16.292849      21.723799      3844.485     
        11   0             -832.6272       1.0142306      1.5142465      0.7642227      0.7642227      0.010005692    0.022229276   -0.028563257    10.861889      16.292849      21.723799      3844.485     
        12   0             -832.6272       1.0142306      1.5142465      0.7642227      0.7642227     -0.0071143881  -0.015806064    0.020309798    10.861889      16.292849      21.723799      3844.485     
        13   0             -832.6272       1.0142306      1.5142465      0.76422271     0.7642227      0.004156732    0.0092352271  -0.011866688    10.861889      16.292849      21.723799      3844.485     
        14   0             -832.6272       1.0142306      1.5142465      0.76422271     0.7642227     -0.0025975124  -0.0057712161   0.0074156743   10.861889      16.292849      21.723799      3844.485     
        15   0             -832.6272       1.0142306      1.5142465      0.76422271     0.76422271     0.0015161219   0.0033687246  -0.0043286379   10.861889      16.292849      21.723799      3844.485     
        16   0             -832.6272       1.0142306      1.5142465      0.76422271     0.76422271    -0.00088774791 -0.0019726835   0.0025348283   10.861889      16.292849      21.723799      3844.485     
        17   0             -832.6272       1.0142306      1.5142465      0.76422271     0.76422271     0.00056525075  0.0012562259  -0.0016142406   10.861889      16.292849      21.723799      3844.485     
        18   0             -832.6272       1.0142306      1.5142465      0.76422271     0.76422271    -0.00033351009 -0.00074139453  0.00095272882  10.861889      16.292849      21.723799      3844.485     
        19   0             -832.6272       1.0142306      1.5142465      0.76422271     0.76422271     0.00016150909  0.00035922437 -0.0004616638   10.861889      16.292849      21.723799      3844.485     
        20   0             -832.6272       1.0142306      1.5142465      0.76422271     0.76422271    -8.0282765e-05 -0.00017881034  0.00022985773  10.861889      16.292849      21.723799      3844.485     
        21   0             -832.6272       1.0142306      1.5142465      0.76422271     0.76422271     3.855328e-05   8.6129598e-05 -0.00011077775  10.861889      16.292849      21.723799      3844.485     
        22   0             -832.6272       1.0142306      1.5142465      0.76422271     0.76422271    -1.8092071e-05 -4.0660709e-05  5.2351719e-05  10.861889      16.292849      21.723799      3844.485     
        23   0             -832.6272       1.0142306      1.5142465      0.76422271     0.76422271     9.9212644e-06  2.2627226e-05 -2.9207404e-05  10.861889      16.292849      21.723799      3844.485     
        24   0             -832.6272       1.0142306      1.5142465      0.76422271     0.76422271    -6.6593809e-06 -1.5658171e-05  2.0316132e-05  10.861889      16.292849      21.723799      3844.485     
        25   0             -832.6272       1.0142306      1.5142465      0.76422271     0.76422271     2.5394032e-06  6.4003843e-06 -8.3968715e-06  10.861889      16.292849      21.723799      3844.485     
        26   0             -832.6272       1.0142306      1.5142465      0.76422271     0.76422271    -2.1211589e-06 -6.288769e-06   8.439851e-06   10.861889      16.292849      21.723799      3844.485     
        27   0             -832.6272       1.0142306      1.5142465      0.76422271     0.76422271     8.4266417e-07  3.3904552e-06 -4.7025942e-06  10.861889      16.292849      21.723799      3844.485     
        28   0             -832.6272       1.0142306      1.5142465      0.76422271     0.76422271    -2.3676803e-07 -2.0230496e-06  2.9408835e-06  10.861889      16.292849      21.723799      3844.485     
        29   0             -832.6272       1.0142306      1.5142465      0.76422271     0.76422271    -1.0635589e-07  1.862876e-06  -2.872568e-06   10.861889      16.292849      21.723799      3844.485     
        30   0             -832.6272       1.0142306      1.5142465      0.76422271     0.76422271     2.5824768e-07 -1.251943e-06   2.0253345e-06  10.861889      16.292849      21.723799      3844.485     
        31   0             -832.6272       1.0142306      1.5142465      0.76422271     0.76422271    -3.7355733e-07  1.186392e-06  -1.9846608e-06  10.861889      16.292849      21.723799      3844.485     
        32   0             -832.6272       1.0142306      1.5142465      0.76422271     0.76422271     4.0876285e-07 -1.0053682e-06  1.7286432e-06  10.861889      16.292849      21.723799      3844.485     
        33   0             -832.6272       1.0142306      1.5142465      0.76422271     0.76422271    -4.1085621e-07  8.6708973e-07 -1.520535e-06   10.861889      16.292849      21.723799      3844.485     
        34   0             -832.6272       1.0142306      1.5142465      0.76422271     0.76422271     3.248389e-07  -6.3732367e-07  1.1292128e-06  10.861889      16.292849      21.723799      3844.485     
        35   0             -832.6272       1.0142306      1.5142465      0.76422271     0.76422271    -4.0618083e-07  7.6326598e-07 -1.3610156e-06  10.861889      16.292849      21.723799      3844.485     
        36   0             -832.6272       1.0142306      1.5142465      0.76422271     0.76422271     4.79145e-07   -8.8845816e-07  1.5874688e-06  10.861889      16.292849      21.723799      3844.485     
        37   0             -832.6272       1.0142306      1.5142465      0.76422271     0.76422271    -4.6977389e-07  8.6751791e-07 -1.5510627e-06  10.861889      16.292849      21.723799      3844.485     
        38   0             -832.6272       1.0142306      1.5142465      0.76422271     0.76422271     4.2896911e-07 -7.9023639e-07  1.4133477e-06  10.861889      16.292849      21.723799      3844.485     
        39   0             -832.6272       1.0142306      1.5142465      0.76422271     0.76422271    -4.7679574e-07  8.7771892e-07 -1.5698454e-06  10.861889      16.292849      21.723799      3844.485     
        40   0             -832.6272       1.0142306      1.5142465      0.76422271     0.76422271     4.2805755e-07 -7.8778575e-07  1.4090047e-06  10.861889      16.292849      21.723799      3844.485     
        41   0             -832.6272       1.0142306      1.5142465      0.76422271     0.76422271    -4.7548086e-07  8.7510255e-07 -1.5651768e-06  10.861889      16.292849      21.723799      3844.485     
        42   0             -832.6272       1.0142306      1.5142465      0.76422271     0.76422271     8.8580368e-07 -1.6303984e-06  2.9160118e-06  10.861889      16.292849      21.723799      3844.485     
        43   0             -832.6272       1.0142306      1.5142465      0.76422271     0.76422271    -5.091813e-07   9.3732608e-07 -1.6763952e-06  10.861889      16.292849      21.723799      3844.485     
        44   0             -832.6272       1.0142306      1.5142465      0.76422271     0.76422271     6.6987084e-07 -1.2331977e-06  2.2055122e-06  10.861889      16.292849      21.723799      3844.485     
        45   0             -832.6272       1.0142306      1.5142465      0.76422271     0.76422271    -4.519492e-07   8.3191854e-07 -1.4878538e-06  10.861889      16.292849      21.723799      3844.485     
        46   0             -832.6272       1.0142306      1.5142465      0.76422271     0.76422271     2.1439262e-07 -3.9461744e-07  7.0566747e-07  10.861889      16.292849      21.723799      3844.485     
        47   0             -832.6272       1.0142306      1.5142465      0.76422271     0.76422271    -1.2725565e-07  2.3402734e-07 -4.1848915e-07  10.861889      16.292849      21.723799      3844.485     
        48   0             -832.6272       1.0142306      1.5142465      0.76422271     0.76422271     4.877883e-08  -8.9292483e-08  1.5971183e-07  10.861889      16.292849      21.723799      3844.485     
        49   0             -832.6272       1.0142306      1.5142465      0.76422271     0.76422271    -2.2326442e-08  4.0592047e-08 -7.2655713e-08  10.861889      16.292849      21.723799      3844.485     
        50   0             -832.6272       1.0142306      1.5142465      0.76422271     0.76422271     1.1391721e-08 -2.019013e-08   3.6232151e-08  10.861889      16.292849      21.723799      3844.485     
        51   0             -832.6272       1.0142306      1.5142465      0.76422271     0.76422271    -7.1596649e-09  1.1524483e-08 -2.0909279e-08  10.861889      16.292849      21.723799      3844.485     
        52   0             -832.6272       1.0142306      1.5142465      0.76422271     0.76422271     2.8513528e-09 -3.917307e-09   7.2400753e-09  10.861889      16.292849      21.723799      3844.485     
        53   0             -832.6272       1.0142306      1.5142465      0.76422271     0.76422271    -1.4541664e-09  1.5129151e-09 -2.9048939e-09  10.861889      16.292849      21.723799      3844.485     
Loop time of 0.024412 on 1 procs for 49 steps with 192 atoms

0.0% CPU use with 1 MPI tasks x 1 OpenMP threads

Minimization stats:
  Stopping criterion = force tolerance
  Energy initial, next-to-last, final = 
     -832.627199818537  -832.627199982312  -832.627199982312
  Force two-norm initial, final = 0.0029110944 7.4098862e-11
  Force max component initial, final = 0.00032517479 7.9559912e-12
  Final line search alpha, max atom move = 1 7.9559912e-12
  Iterations, force evaluations = 49 98

MPI task timing breakdown:
Section |  min time  |  avg time  |  max time  |%varavg| %total
---------------------------------------------------------------
Pair    | 0.0173     | 0.0173     | 0.0173     |   0.0 | 70.87
Neigh   | 0          | 0          | 0          |   0.0 |  0.00
Comm    | 0.000239   | 0.000239   | 0.000239   |   0.0 |  0.98
Output  | 0.006354   | 0.006354   | 0.006354   |   0.0 | 26.03
Modify  | 0          | 0          | 0          |   0.0 |  0.00
Other   |            | 0.000519   |            |       |  2.13

Nlocal:            192 ave         192 max         192 min
Histogram: 1 0 0 0 0 0 0 0 0 0
Nghost:            634 ave         634 max         634 min
Histogram: 1 0 0 0 0 0 0 0 0 0
Neighs:              0 ave           0 max           0 min
Histogram: 1 0 0 0 0 0 0 0 0 0
FullNghs:         5376 ave        5376 max        5376 min
Histogram: 1 0 0 0 0 0 0 0 0 0

Total # of neighbors = 5376
Ave neighs/atom = 28
Neighbor list builds = 0
Dangerous builds = 0

# Obtain new stress tensor

variable tmp equal pxx
variable pxx1 equal ${tmp}
variable pxx1 equal 1.51424647201146
variable tmp equal pyy
variable pyy1 equal ${tmp}
variable pyy1 equal 0.764222708651011
variable tmp equal pzz
variable pzz1 equal ${tmp}
variable pzz1 equal 0.764222708651011
variable tmp equal pxy
variable pxy1 equal ${tmp}
variable pxy1 equal -1.45416642778247e-09
variable tmp equal pxz
variable pxz1 equal ${tmp}
variable pxz1 equal 1.51291508492534e-09
variable tmp equal pyz
variable pyz1 equal ${tmp}
variable pyz1 equal -2.90489393409336e-09

# Compute elastic constant from pressure tensor

variable C1neg equal ${d1}
variable C1neg equal 151.424647220996
variable C2neg equal ${d2}
variable C2neg equal 76.422270885463
variable C3neg equal ${d3}
variable C3neg equal 76.4222708847881
variable C4neg equal ${d4}
variable C4neg equal -2.60527967064227e-07
variable C5neg equal ${d5}
variable C5neg equal 1.47448552151653e-07
variable C6neg equal ${d6}
variable C6neg equal -1.58873145225002e-07

# Reset box and simulation parameters

clear
OMP_NUM_THREADS environment is not set. Defaulting to 1 thread.
  using 1 OpenMP thread(s) per MPI task
Restoring plugin: Hello world command v1.1 by Axel Kohlmeyer (akohlmey@gmail.com)
WARNING: Overriding built-in command style hello from plugin (src/PLUGIN/plugin.cpp:556)
Loaded 1 plugins from C:\Users\Home\AppData\Local\LAMMPS 64-bit 22Jul2025 with GUI\plugins
box tilt large

The 'box' command has been removed and will be ignored

read_restart restart.equil
Reading restart file ...
  restart file = 22 Jul 2025, LAMMPS = 22 Jul 2025
  restoring atom style atomic from restart
  triclinic box = (-0.00094977841 -0.0014246676 -0.0018995568) to (10.86095 16.291425 21.7219) with tilt (0 0 0)
  1 by 1 by 1 MPI processor grid
  pair style sw stores no restart info
  192 atoms
  read_restart CPU = 0.001 seconds
include potential.mod
# NOTE: This script can be modified for different pair styles
# See in.elastic for more info.

# Choose potential
pair_style	sw
pair_coeff * * Si.sw Si
Reading sw potential file Si.sw with DATE: 2007-06-11

# Setup neighbor style
neighbor 1.0 nsq
neigh_modify once no every 1 delay 0 check yes

# Setup minimization style
min_style	     cg
min_modify	     dmax ${dmax} line quadratic
min_modify	     dmax 0.01 line quadratic

# Setup output
thermo		1
thermo_style custom step temp pe press pxx pyy pzz pxy pxz pyz lx ly lz vol
thermo_modify norm no

# Positive deformation

variable delta equal ${up}*${len0}
variable delta equal 1e-06*${len0}
variable delta equal 1e-06*10.8618995568104
variable deltaxy equal ${up}*xy
variable deltaxy equal 1e-06*xy
variable deltaxz equal ${up}*xz
variable deltaxz equal 1e-06*xz
variable deltayz equal ${up}*yz
variable deltayz equal 1e-06*yz
if "${dir} == 1" then    "change_box all x delta 0 ${delta} xy delta ${deltaxy} xz delta ${deltaxz} remap units box"
change_box all x delta 0 ${delta} xy delta ${deltaxy} xz delta ${deltaxz} remap units box
change_box all x delta 0 1.08618995568104e-05 xy delta ${deltaxy} xz delta ${deltaxz} remap units box
change_box all x delta 0 1.08618995568104e-05 xy delta 0 xz delta ${deltaxz} remap units box
change_box all x delta 0 1.08618995568104e-05 xy delta 0 xz delta 0 remap units box
Changing box ...
  triclinic box = (-0.00094977841 -0.0014246676 -0.0018995568) to (10.860961 16.291425 21.7219) with tilt (0 0 0)
  triclinic box = (-0.00094977841 -0.0014246676 -0.0018995568) to (10.860961 16.291425 21.7219) with tilt (0 0 0)
  triclinic box = (-0.00094977841 -0.0014246676 -0.0018995568) to (10.860961 16.291425 21.7219) with tilt (0 0 0)
if "${dir} == 2" then    "change_box all y delta 0 ${delta} yz delta ${deltayz} remap units box"
if "${dir} == 3" then    "change_box all z delta 0 ${delta} remap units box"
if "${dir} == 4" then    "change_box all yz delta ${delta} remap units box"
if "${dir} == 5" then    "change_box all xz delta ${delta} remap units box"
if "${dir} == 6" then    "change_box all xy delta ${delta} remap units box"

# Relax atoms positions

minimize ${etol} ${ftol} ${maxiter} ${maxeval}
minimize 0 ${ftol} ${maxiter} ${maxeval}
minimize 0 1e-10 ${maxiter} ${maxeval}
minimize 0 1e-10 100 ${maxeval}
minimize 0 1e-10 100 1000
Neighbor list info ...
  update: every = 1 steps, delay = 0 steps, check = yes
  max neighbors/atom: 2000, page size: 100000
  master list distance cutoff = 4.77118
  ghost atom cutoff = 4.77118
  1 neighbor lists, perpetual/occasional/extra = 1 0 0
  (1) pair sw, perpetual
      attributes: full, newton on
      pair build: full/nsq
      stencil: none
      bin: none
Per MPI rank memory allocation (min/avg/max) = 4.178 | 4.178 | 4.178 Mbytes
   Step          Temp          PotEng         Press           Pxx            Pyy            Pzz            Pxy            Pxz            Pyz             Lx             Ly             Lz           Volume    
         4   0             -832.6272      -1.0141685     -1.5141819     -0.76416264    -0.76416109    -0.1641171     -0.36432746     0.46825891     10.86191       16.292849      21.723799      3844.4927    
         5   0             -832.6272      -1.0142257     -1.5142412     -0.76421798    -0.7642178      0.040933572    0.090901091   -0.11681786     10.86191       16.292849      21.723799      3844.4927    
         6   0             -832.6272      -1.0142274     -1.5142433     -0.76421963    -0.76421925    -0.036876841   -0.081908639    0.10525271     10.86191       16.292849      21.723799      3844.4927    
         7   0             -832.6272      -1.0142272     -1.5142432     -0.76421929    -0.76421907     0.030627178    0.06803128    -0.087418602    10.86191       16.292849      21.723799      3844.4927    
         8   0             -832.6272      -1.0142271     -1.5142431     -0.76421904    -0.764219      -0.019933819   -0.044281271    0.056899001    10.86191       16.292849      21.723799      3844.4927    
         9   0             -832.6272      -1.0142271     -1.5142431     -0.76421903    -0.76421901     0.015671545    0.03481465    -0.04473412     10.86191       16.292849      21.723799      3844.4927    
        10   0             -832.6272      -1.014227      -1.5142431     -0.76421899    -0.764219      -0.012301141   -0.027328154    0.035114052    10.86191       16.292849      21.723799      3844.4927    
        11   0             -832.6272      -1.014227      -1.5142431     -0.76421899    -0.76421899     0.010005778    0.022229467   -0.028562357    10.86191       16.292849      21.723799      3844.4927    
        12   0             -832.6272      -1.014227      -1.5142431     -0.76421898    -0.76421899    -0.0071145232  -0.015806363    0.020309197    10.86191       16.292849      21.723799      3844.4927    
        13   0             -832.6272      -1.014227      -1.5142431     -0.76421898    -0.76421898     0.004156864    0.0092355199  -0.011866332    10.86191       16.292849      21.723799      3844.4927    
        14   0             -832.6272      -1.014227      -1.5142431     -0.76421898    -0.76421898    -0.0025976455  -0.0057715115   0.0074154112   10.86191       16.292849      21.723799      3844.4927    
        15   0             -832.6272      -1.014227      -1.5142431     -0.76421898    -0.76421898     0.0015162441   0.003368996   -0.0043284362   10.86191       16.292849      21.723799      3844.4927    
        16   0             -832.6272      -1.014227      -1.5142431     -0.76421898    -0.76421898    -0.00088786027 -0.0019729329   0.0025346386   10.86191       16.292849      21.723799      3844.4927    
        17   0             -832.6272      -1.014227      -1.5142431     -0.76421898    -0.76421898     0.0005653641   0.0012564771  -0.0016140428   10.86191       16.292849      21.723799      3844.4927    
        18   0             -832.6272      -1.014227      -1.5142431     -0.76421898    -0.76421898    -0.00033362441 -0.00074164719  0.00095251686  10.86191       16.292849      21.723799      3844.4927    
        19   0             -832.6272      -1.014227      -1.5142431     -0.76421898    -0.76421898     0.00016161005  0.00035944752 -0.00046146594  10.86191       16.292849      21.723799      3844.4927    
        20   0             -832.6272      -1.014227      -1.5142431     -0.76421898    -0.76421898    -8.0392934e-05 -0.00017905405  0.00022963401  10.86191       16.292849      21.723799      3844.4927    
        21   0             -832.6272      -1.014227      -1.5142431     -0.76421898    -0.76421898     3.8669561e-05  8.6387004e-05 -0.00011053793  10.86191       16.292849      21.723799      3844.4927    
        22   0             -832.6272      -1.014227      -1.5142431     -0.76421898    -0.76421898    -1.8205496e-05 -4.0911719e-05  5.2116561e-05  10.86191       16.292849      21.723799      3844.4927    
        23   0             -832.6272      -1.014227      -1.5142431     -0.76421898    -0.76421898     1.0063275e-05  2.2941691e-05 -2.8911368e-05  10.86191       16.292849      21.723799      3844.4927    
        24   0             -832.6272      -1.014227      -1.5142431     -0.76421898    -0.76421898    -6.868327e-06  -1.6121442e-05  1.9879024e-05  10.86191       16.292849      21.723799      3844.4927    
        25   0             -832.6272      -1.014227      -1.5142431     -0.76421898    -0.76421898     2.7227144e-06  6.8074027e-06 -8.0126009e-06  10.86191       16.292849      21.723799      3844.4927    
        26   0             -832.6272      -1.014227      -1.5142431     -0.76421898    -0.76421898    -2.5015741e-06 -7.1342928e-06  7.6412212e-06  10.86191       16.292849      21.723799      3844.4927    
        27   0             -832.6272      -1.014227      -1.5142431     -0.76421898    -0.76421898     1.2087827e-06  4.204837e-06  -3.9330014e-06  10.86191       16.292849      21.723799      3844.4927    
        28   0             -832.6272      -1.014227      -1.5142431     -0.76421898    -0.76421898    -5.9762694e-07 -2.8261501e-06  2.1816989e-06  10.86191       16.292849      21.723799      3844.4927    
        29   0             -832.6272      -1.014227      -1.5142431     -0.76421898    -0.76421898     3.9961066e-07  2.9890261e-06 -1.8076103e-06  10.86191       16.292849      21.723799      3844.4927    
        30   0             -832.6272      -1.014227      -1.5142431     -0.76421898    -0.76421898    -1.8164528e-07 -2.2315312e-06  1.098837e-06   10.86191       16.292849      21.723799      3844.4927    
        31   0             -832.6272      -1.014227      -1.5142431     -0.76421898    -0.76421898     1.1213132e-07  2.2682588e-06 -9.6123709e-07  10.86191       16.292849      21.723799      3844.4927    
        32   0             -832.6272      -1.014227      -1.5142431     -0.76421898    -0.76421898    -5.2003996e-08 -2.0322345e-06  7.5724748e-07  10.86191       16.292849      21.723799      3844.4927    
        33   0             -832.6272      -1.014227      -1.5142431     -0.76421898    -0.76421898     1.7590247e-08  1.8223027e-06 -6.1690942e-07  10.86191       16.292849      21.723799      3844.4927    
        34   0             -832.6272      -1.014227      -1.5142431     -0.76421898    -0.76421898    -2.2245276e-09 -1.3666341e-06  4.391966e-07   10.86191       16.292849      21.723799      3844.4927    
        35   0             -832.6272      -1.014227      -1.5142431     -0.76421898    -0.76421898    -5.2383208e-09  1.6570218e-06 -5.1526621e-07  10.86191       16.292849      21.723799      3844.4927    
        36   0             -832.6272      -1.014227      -1.5142431     -0.76421898    -0.76421898     8.8727937e-09 -1.936225e-06   5.9571973e-07  10.86191       16.292849      21.723799      3844.4927    
        37   0             -832.6272      -1.014227      -1.5142431     -0.76421898    -0.76421898    -9.4875969e-09  1.8926072e-06 -5.8033324e-07  10.86191       16.292849      21.723799      3844.4927    
        38   0             -832.6272      -1.014227      -1.5142431     -0.76421898    -0.76421898     9.0883653e-09 -1.7248041e-06  5.2777825e-07  10.86191       16.292849      21.723799      3844.4927    
        39   0             -832.6272      -1.014227      -1.5142431     -0.76421898    -0.76421898    -1.0241079e-08  1.914617e-06  -5.8545364e-07  10.86191       16.292849      21.723799      3844.4927    
        40   0             -832.6272      -1.014227      -1.5142431     -0.76421898    -0.76421898     9.2065253e-09 -1.7162624e-06  5.2463664e-07  10.86191       16.292849      21.723799      3844.4927    
        41   0             -832.6272      -1.014227      -1.5142431     -0.76421898    -0.76421898    -1.018284e-08   1.9005221e-06 -5.8092472e-07  10.86191       16.292849      21.723799      3844.4927    
        42   0             -832.6272      -1.014227      -1.5142431     -0.76421898    -0.76421898     1.8748788e-08 -3.5049612e-06  1.0713441e-06  10.86191       16.292849      21.723799      3844.4927    
        43   0             -832.6272      -1.014227      -1.5142431     -0.76421898    -0.76421898    -1.0548905e-08  1.9765578e-06 -6.0419014e-07  10.86191       16.292849      21.723799      3844.4927    
        44   0             -832.6272      -1.014227      -1.5142431     -0.76421898    -0.76421898     1.3377634e-08 -2.5245203e-06  7.7174957e-07  10.86191       16.292849      21.723799      3844.4927    
        45   0             -832.6272      -1.014227      -1.5142431     -0.76421898    -0.76421898    -8.5642221e-09  1.6314926e-06 -4.9878807e-07  10.86191       16.292849      21.723799      3844.4927    
        46   0             -832.6272      -1.014227      -1.5142431     -0.76421898    -0.76421898     3.9024061e-09 -7.5910373e-07  2.3211497e-07  10.86191       16.292849      21.723799      3844.4927    
        47   0             -832.6272      -1.014227      -1.5142431     -0.76421898    -0.76421898    -2.3453597e-09  4.4427217e-07 -1.358762e-07   10.86191       16.292849      21.723799      3844.4927    
        48   0             -832.6272      -1.014227      -1.5142431     -0.76421898    -0.76421898     1.0895435e-09 -1.6888398e-07  5.1631561e-08  10.86191       16.292849      21.723799      3844.4927    
        49   0             -832.6272      -1.014227      -1.5142431     -0.76421898    -0.76421898    -7.7279853e-10  7.6777738e-08 -2.3395299e-08  10.86191       16.292849      21.723799      3844.4927    
        50   0             -832.6272      -1.014227      -1.5142431     -0.76421898    -0.76421898     6.7560484e-10 -3.8192792e-08  1.164991e-08   10.86191       16.292849      21.723799      3844.4927    
        51   0             -832.6272      -1.014227      -1.5142431     -0.76421898    -0.76421898    -7.3340988e-10  2.1874951e-08 -6.69792e-09    10.86191       16.292849      21.723799      3844.4927    
        52   0             -832.6272      -1.014227      -1.5142431     -0.76421898    -0.76421898     5.1951987e-10 -7.4208406e-09  2.3212604e-09  10.86191       16.292849      21.723799      3844.4927    
        53   0             -832.6272      -1.014227      -1.5142431     -0.76421898    -0.76421898    -4.9168502e-10  2.7801552e-09 -9.2633642e-10  10.86191       16.292849      21.723799      3844.4927    
Loop time of 0.024007 on 1 procs for 49 steps with 192 atoms

130.2% CPU use with 1 MPI tasks x 1 OpenMP threads

Minimization stats:
  Stopping criterion = force tolerance
  Energy initial, next-to-last, final = 
     -832.627199818538  -832.627199982312  -832.627199982312
  Force two-norm initial, final = 0.0029110867 7.4117214e-11
  Force max component initial, final = 0.00032517369 7.951739e-12
  Final line search alpha, max atom move = 1 7.951739e-12
  Iterations, force evaluations = 49 98

MPI task timing breakdown:
Section |  min time  |  avg time  |  max time  |%varavg| %total
---------------------------------------------------------------
Pair    | 0.017084   | 0.017084   | 0.017084   |   0.0 | 71.16
Neigh   | 0          | 0          | 0          |   0.0 |  0.00
Comm    | 0.000227   | 0.000227   | 0.000227   |   0.0 |  0.95
Output  | 0.006197   | 0.006197   | 0.006197   |   0.0 | 25.81
Modify  | 0          | 0          | 0          |   0.0 |  0.00
Other   |            | 0.000499   |            |       |  2.08

Nlocal:            192 ave         192 max         192 min
Histogram: 1 0 0 0 0 0 0 0 0 0
Nghost:            634 ave         634 max         634 min
Histogram: 1 0 0 0 0 0 0 0 0 0
Neighs:              0 ave           0 max           0 min
Histogram: 1 0 0 0 0 0 0 0 0 0
FullNghs:         5376 ave        5376 max        5376 min
Histogram: 1 0 0 0 0 0 0 0 0 0

Total # of neighbors = 5376
Ave neighs/atom = 28
Neighbor list builds = 0
Dangerous builds = 0

# Obtain new stress tensor

variable tmp equal pe
variable e1 equal ${tmp}
variable e1 equal -832.627199982312
variable tmp equal press
variable p1 equal ${tmp}
variable p1 equal -1.01422702260694
variable tmp equal pxx
variable pxx1 equal ${tmp}
variable pxx1 equal -1.51424311326765
variable tmp equal pyy
variable pyy1 equal ${tmp}
variable pyy1 equal -0.764218977279598
variable tmp equal pzz
variable pzz1 equal ${tmp}
variable pzz1 equal -0.76421897727358
variable tmp equal pxy
variable pxy1 equal ${tmp}
variable pxy1 equal -4.91685021795851e-10
variable tmp equal pxz
variable pxz1 equal ${tmp}
variable pxz1 equal 2.7801551720195e-09
variable tmp equal pyz
variable pyz1 equal ${tmp}
variable pyz1 equal -9.26336423825219e-10

# Compute elastic constant from pressure tensor

variable C1pos equal ${d1}
variable C1pos equal 151.424311306915
variable C2pos equal ${d2}
variable C2pos equal 76.4218977075979
variable C3pos equal ${d3}
variable C3pos equal 76.421897707671
variable C4pos equal ${d4}
variable C4pos equal 6.26722160374134e-08
variable C5pos equal ${d5}
variable C5pos equal -2.74172560861069e-07
variable C6pos equal ${d6}
variable C6pos equal 6.26250046263397e-08

# Combine positive and negative

variable C1${dir} equal 0.5*(${C1neg}+${C1pos})
variable C11 equal 0.5*(${C1neg}+${C1pos})
variable C11 equal 0.5*(151.424647220996+${C1pos})
variable C11 equal 0.5*(151.424647220996+151.424311306915)
variable C2${dir} equal 0.5*(${C2neg}+${C2pos})
variable C21 equal 0.5*(${C2neg}+${C2pos})
variable C21 equal 0.5*(76.422270885463+${C2pos})
variable C21 equal 0.5*(76.422270885463+76.4218977075979)
variable C3${dir} equal 0.5*(${C3neg}+${C3pos})
variable C31 equal 0.5*(${C3neg}+${C3pos})
variable C31 equal 0.5*(76.4222708847881+${C3pos})
variable C31 equal 0.5*(76.4222708847881+76.421897707671)
variable C4${dir} equal 0.5*(${C4neg}+${C4pos})
variable C41 equal 0.5*(${C4neg}+${C4pos})
variable C41 equal 0.5*(-2.60527967064227e-07+${C4pos})
variable C41 equal 0.5*(-2.60527967064227e-07+6.26722160374134e-08)
variable C5${dir} equal 0.5*(${C5neg}+${C5pos})
variable C51 equal 0.5*(${C5neg}+${C5pos})
variable C51 equal 0.5*(1.47448552151653e-07+${C5pos})
variable C51 equal 0.5*(1.47448552151653e-07+-2.74172560861069e-07)
variable C6${dir} equal 0.5*(${C6neg}+${C6pos})
variable C61 equal 0.5*(${C6neg}+${C6pos})
variable C61 equal 0.5*(-1.58873145225002e-07+${C6pos})
variable C61 equal 0.5*(-1.58873145225002e-07+6.26250046263397e-08)

# Delete dir to make sure it is not reused

variable dir delete

# uyy Perturbation

variable dir equal 2
include displace.mod
# NOTE: This script should not need to be
# modified. See in.elastic for more info.
#
# Find which reference length to use

if "${dir} == 1" then    "variable len0 equal ${lx0}"
if "${dir} == 2" then    "variable len0 equal ${ly0}"
variable len0 equal ${ly0}
variable len0 equal 16.2928493352156
if "${dir} == 3" then    "variable len0 equal ${lz0}"
if "${dir} == 4" then    "variable len0 equal ${lz0}"
if "${dir} == 5" then    "variable len0 equal ${lz0}"
if "${dir} == 6" then    "variable len0 equal ${ly0}"

# Reset box and simulation parameters

clear
OMP_NUM_THREADS environment is not set. Defaulting to 1 thread.
  using 1 OpenMP thread(s) per MPI task
Restoring plugin: Hello world command v1.1 by Axel Kohlmeyer (akohlmey@gmail.com)
WARNING: Overriding built-in command style hello from plugin (src/PLUGIN/plugin.cpp:556)
Loaded 1 plugins from C:\Users\Home\AppData\Local\LAMMPS 64-bit 22Jul2025 with GUI\plugins
box tilt large

The 'box' command has been removed and will be ignored

read_restart restart.equil
Reading restart file ...
  restart file = 22 Jul 2025, LAMMPS = 22 Jul 2025
  restoring atom style atomic from restart
  triclinic box = (-0.00094977841 -0.0014246676 -0.0018995568) to (10.86095 16.291425 21.7219) with tilt (0 0 0)
  1 by 1 by 1 MPI processor grid
  pair style sw stores no restart info
  192 atoms
  read_restart CPU = 0.001 seconds
include potential.mod
# NOTE: This script can be modified for different pair styles
# See in.elastic for more info.

# Choose potential
pair_style	sw
pair_coeff * * Si.sw Si
Reading sw potential file Si.sw with DATE: 2007-06-11

# Setup neighbor style
neighbor 1.0 nsq
neigh_modify once no every 1 delay 0 check yes

# Setup minimization style
min_style	     cg
min_modify	     dmax ${dmax} line quadratic
min_modify	     dmax 0.01 line quadratic

# Setup output
thermo		1
thermo_style custom step temp pe press pxx pyy pzz pxy pxz pyz lx ly lz vol
thermo_modify norm no

# Negative deformation

variable delta equal -${up}*${len0}
variable delta equal -1e-06*${len0}
variable delta equal -1e-06*16.2928493352156
variable deltaxy equal -${up}*xy
variable deltaxy equal -1e-06*xy
variable deltaxz equal -${up}*xz
variable deltaxz equal -1e-06*xz
variable deltayz equal -${up}*yz
variable deltayz equal -1e-06*yz
if "${dir} == 1" then    "change_box all x delta 0 ${delta} xy delta ${deltaxy} xz delta ${deltaxz} remap units box"
if "${dir} == 2" then    "change_box all y delta 0 ${delta} yz delta ${deltayz} remap units box"
change_box all y delta 0 ${delta} yz delta ${deltayz} remap units box
change_box all y delta 0 -1.62928493352156e-05 yz delta ${deltayz} remap units box
change_box all y delta 0 -1.62928493352156e-05 yz delta 0 remap units box
Changing box ...
  triclinic box = (-0.00094977841 -0.0014246676 -0.0018995568) to (10.86095 16.291408 21.7219) with tilt (0 0 0)
  triclinic box = (-0.00094977841 -0.0014246676 -0.0018995568) to (10.86095 16.291408 21.7219) with tilt (0 0 0)
if "${dir} == 3" then    "change_box all z delta 0 ${delta} remap units box"
if "${dir} == 4" then    "change_box all yz delta ${delta} remap units box"
if "${dir} == 5" then    "change_box all xz delta ${delta} remap units box"
if "${dir} == 6" then    "change_box all xy delta ${delta} remap units box"

# Relax atoms positions

minimize ${etol} ${ftol} ${maxiter} ${maxeval}
minimize 0 ${ftol} ${maxiter} ${maxeval}
minimize 0 1e-10 ${maxiter} ${maxeval}
minimize 0 1e-10 100 ${maxeval}
minimize 0 1e-10 100 1000
Neighbor list info ...
  update: every = 1 steps, delay = 0 steps, check = yes
  max neighbors/atom: 2000, page size: 100000
  master list distance cutoff = 4.77118
  ghost atom cutoff = 4.77118
  1 neighbor lists, perpetual/occasional/extra = 1 0 0
  (1) pair sw, perpetual
      attributes: full, newton on
      pair build: full/nsq
      stencil: none
      bin: none
Per MPI rank memory allocation (min/avg/max) = 4.178 | 4.178 | 4.178 Mbytes
   Step          Temp          PotEng         Press           Pxx            Pyy            Pzz            Pxy            Pxz            Pyz             Lx             Ly             Lz           Volume    
         4   0             -832.6272       1.0142891      0.76428394     1.5143028      0.7642806     -0.16411795    -0.36432928     0.46826125     10.8619        16.292833      21.723799      3844.485     
         5   0             -832.6272       1.014232       0.76422458     1.5142475      0.76422389     0.040933676    0.090901483   -0.11681836     10.8619        16.292833      21.723799      3844.485     
         6   0             -832.6272       1.0142303      0.76422251     1.5142458      0.76422243    -0.036876881   -0.081909013    0.10525319     10.8619        16.292833      21.723799      3844.485     
         7   0             -832.6272       1.0142305      0.76422266     1.5142462      0.76422261     0.030627204    0.068031696   -0.087419136    10.8619        16.292833      21.723799      3844.485     
         8   0             -832.6272       1.0142306      0.7642227      1.5142464      0.76422268    -0.019933806   -0.044281619    0.056899447    10.8619        16.292833      21.723799      3844.485     
         9   0             -832.6272       1.0142306      0.7642227      1.5142464      0.76422268     0.015671485    0.034814932   -0.044734482    10.8619        16.292833      21.723799      3844.485     
        10   0             -832.6272       1.0142306      0.7642227      1.5142465      0.76422268    -0.01230106    -0.027328399    0.035114366    10.8619        16.292833      21.723799      3844.485     
        11   0             -832.6272       1.0142306      0.76422271     1.5142465      0.7642227      0.010005674    0.022229681   -0.028562633    10.8619        16.292833      21.723799      3844.485     
        12   0             -832.6272       1.0142306      0.76422271     1.5142465      0.7642227     -0.0071144172  -0.015806512    0.020309388    10.8619        16.292833      21.723799      3844.485     
        13   0             -832.6272       1.0142306      0.76422271     1.5142465      0.7642227      0.0041567717   0.0092355999  -0.011866435    10.8619        16.292833      21.723799      3844.485     
        14   0             -832.6272       1.0142306      0.76422271     1.5142465      0.7642227     -0.0025975578  -0.0057715673   0.0074154831   10.8619        16.292833      21.723799      3844.485     
        15   0             -832.6272       1.0142306      0.76422271     1.5142465      0.76422271     0.0015161646   0.0033690337  -0.0043284847   10.8619        16.292833      21.723799      3844.485     
        16   0             -832.6272       1.0142306      0.76422271     1.5142465      0.76422271    -0.00088778351 -0.001972961    0.0025346746   10.8619        16.292833      21.723799      3844.485     
        17   0             -832.6272       1.0142306      0.76422271     1.5142465      0.76422271     0.00056528362  0.0012565011  -0.0016140734   10.8619        16.292833      21.723799      3844.485     
        18   0             -832.6272       1.0142306      0.76422271     1.5142465      0.76422271    -0.00033354031 -0.00074166936  0.00095254503  10.8619        16.292833      21.723799      3844.485     
        19   0             -832.6272       1.0142306      0.76422271     1.5142465      0.76422271     0.00016153331  0.00035946551 -0.00046148863  10.8619        16.292833      21.723799      3844.485     
        20   0             -832.6272       1.0142306      0.76422271     1.5142465      0.76422271    -8.0307256e-05 -0.00017907245  0.00022965692  10.8619        16.292833      21.723799      3844.485     
        21   0             -832.6272       1.0142306      0.76422271     1.5142465      0.76422271     3.8577794e-05  8.6405048e-05 -0.00011056019  10.8619        16.292833      21.723799      3844.485     
        22   0             -832.6272       1.0142306      0.76422271     1.5142465      0.76422271    -1.8115534e-05 -4.0928712e-05  5.2137544e-05  10.8619        16.292833      21.723799      3844.485     
        23   0             -832.6272       1.0142306      0.76422271     1.5142465      0.76422271     9.9503956e-06  2.2962659e-05 -2.8937353e-05  10.8619        16.292833      21.723799      3844.485     
        24   0             -832.6272       1.0142306      0.76422271     1.5142465      0.76422271    -6.7020473e-06 -1.6152198e-05  1.991719e-05   10.8619        16.292833      21.723799      3844.485     
        25   0             -832.6272       1.0142306      0.76422271     1.5142465      0.76422271     2.5766769e-06  6.8343223e-06 -8.0459495e-06  10.8619        16.292833      21.723799      3844.485     
        26   0             -832.6272       1.0142306      0.76422271     1.5142465      0.76422271    -2.1983524e-06 -7.1902029e-06  7.710404e-06   10.8619        16.292833      21.723799      3844.485     
        27   0             -832.6272       1.0142306      0.76422271     1.5142465      0.76422271     9.1670184e-07  4.2587803e-06 -3.9997339e-06  10.8619        16.292833      21.723799      3844.485     
        28   0             -832.6272       1.0142306      0.76422271     1.5142465      0.76422271    -3.095341e-07  -2.8794108e-06  2.2476619e-06  10.8619        16.292833      21.723799      3844.485     
        29   0             -832.6272       1.0142306      0.76422271     1.5142465      0.76422271    -4.4885593e-09  3.0638241e-06 -1.9002997e-06  10.8619        16.292833      21.723799      3844.485     
        30   0             -832.6272       1.0142306      0.76422271     1.5142465      0.76422271     1.6978789e-07 -2.2966372e-06  1.1795637e-06  10.8619        16.292833      21.723799      3844.485     
        31   0             -832.6272       1.0142306      0.76422271     1.5142465      0.76422271    -2.7586184e-07  2.3402072e-06 -1.0504557e-06  10.8619        16.292833      21.723799      3844.485     
        32   0             -832.6272       1.0142306      0.76422271     1.5142465      0.76422271     3.1607752e-07 -2.1004591e-06  8.4195187e-07  10.8619        16.292833      21.723799      3844.485     
        33   0             -832.6272       1.0142306      0.76422271     1.5142465      0.76422271    -3.2460599e-07  1.8856896e-06 -6.9565945e-07  10.8619        16.292833      21.723799      3844.485     
        34   0             -832.6272       1.0142306      0.76422271     1.5142465      0.76422271     2.5904309e-07 -1.4149855e-06  4.9923741e-07  10.8619        16.292833      21.723799      3844.485     
        35   0             -832.6272       1.0142306      0.76422271     1.5142465      0.76422271    -3.2545467e-07  1.7162104e-06 -5.8871507e-07  10.8619        16.292833      21.723799      3844.485     
        36   0             -832.6272       1.0142306      0.76422271     1.5142465      0.76422271     3.844237e-07  -2.0055396e-06  6.8178492e-07  10.8619        16.292833      21.723799      3844.485     
        37   0             -832.6272       1.0142306      0.76422271     1.5142465      0.76422271    -3.7691456e-07  1.9602388e-06 -6.6451522e-07  10.8619        16.292833      21.723799      3844.485     
        38   0             -832.6272       1.0142306      0.76422271     1.5142465      0.76422271     3.441193e-07  -1.7862262e-06  6.0439864e-07  10.8619        16.292833      21.723799      3844.485     
        39   0             -832.6272       1.0142306      0.76422271     1.5142465      0.76422271    -3.8199246e-07  1.9814389e-06 -6.6999998e-07  10.8619        16.292833      21.723799      3844.485     
        40   0             -832.6272       1.0142306      0.76422271     1.5142465      0.76422271     3.4215195e-07 -1.7740292e-06  5.9967586e-07  10.8619        16.292833      21.723799      3844.485     
        41   0             -832.6272       1.0142306      0.76422271     1.5142465      0.76422271    -3.777944e-07   1.9587011e-06 -6.6203922e-07  10.8619        16.292833      21.723799      3844.485     
        42   0             -832.6272       1.0142306      0.76422271     1.5142465      0.76422271     6.9014591e-07 -3.5784326e-06  1.2095262e-06  10.8619        16.292833      21.723799      3844.485     
        43   0             -832.6272       1.0142306      0.76422271     1.5142465      0.76422271    -3.8244345e-07  1.9833398e-06 -6.7043129e-07  10.8619        16.292833      21.723799      3844.485     
        44   0             -832.6272       1.0142306      0.76422271     1.5142465      0.76422271     4.7615914e-07 -2.4701544e-06  8.3495127e-07  10.8619        16.292833      21.723799      3844.485     
        45   0             -832.6272       1.0142306      0.76422271     1.5142465      0.76422271    -2.9720368e-07  1.5425541e-06 -5.2134106e-07  10.8619        16.292833      21.723799      3844.485     
        46   0             -832.6272       1.0142306      0.76422271     1.5142465      0.76422271     1.359713e-07  -7.0727105e-07  2.3901643e-07  10.8619        16.292833      21.723799      3844.485     
        47   0             -832.6272       1.0142306      0.76422271     1.5142465      0.76422271    -7.8525369e-08  4.099231e-07  -1.3851119e-07  10.8619        16.292833      21.723799      3844.485     
        48   0             -832.6272       1.0142306      0.76422271     1.5142465      0.76422271     2.939991e-08  -1.5535247e-07  5.2359971e-08  10.8619        16.292833      21.723799      3844.485     
        49   0             -832.6272       1.0142306      0.76422271     1.5142465      0.76422271    -1.3089324e-08  7.0622967e-08 -2.3635418e-08  10.8619        16.292833      21.723799      3844.485     
        50   0             -832.6272       1.0142306      0.76422271     1.5142465      0.76422271     6.2130529e-09 -3.529434e-08   1.1704659e-08  10.8619        16.292833      21.723799      3844.485     
        51   0             -832.6272       1.0142306      0.76422271     1.5142465      0.76422271    -2.9519094e-09  2.0566378e-08 -6.7453972e-09  10.8619        16.292833      21.723799      3844.485     
        52   0             -832.6272       1.0142306      0.76422271     1.5142465      0.76422271     4.8383228e-10 -7.4026384e-09  2.413161e-09   10.8619        16.292833      21.723799      3844.485     
        53   0             -832.6272       1.0142306      0.76422271     1.5142465      0.76422271     4.7161154e-10  3.373641e-09  -1.112486e-09   10.8619        16.292833      21.723799      3844.485     
Loop time of 0.02438 on 1 procs for 49 steps with 192 atoms

128.2% CPU use with 1 MPI tasks x 1 OpenMP threads

Minimization stats:
  Stopping criterion = force tolerance
  Energy initial, next-to-last, final = 
     -832.627199818538  -832.627199982312  -832.627199982312
  Force two-norm initial, final = 0.0029110943 7.4137093e-11
  Force max component initial, final = 0.00032517469 8.0646098e-12
  Final line search alpha, max atom move = 1 8.0646098e-12
  Iterations, force evaluations = 49 98

MPI task timing breakdown:
Section |  min time  |  avg time  |  max time  |%varavg| %total
---------------------------------------------------------------
Pair    | 0.017307   | 0.017307   | 0.017307   |   0.0 | 70.99
Neigh   | 0          | 0          | 0          |   0.0 |  0.00
Comm    | 0.000214   | 0.000214   | 0.000214   |   0.0 |  0.88
Output  | 0.006331   | 0.006331   | 0.006331   |   0.0 | 25.97
Modify  | 0          | 0          | 0          |   0.0 |  0.00
Other   |            | 0.000528   |            |       |  2.17

Nlocal:            192 ave         192 max         192 min
Histogram: 1 0 0 0 0 0 0 0 0 0
Nghost:            634 ave         634 max         634 min
Histogram: 1 0 0 0 0 0 0 0 0 0
Neighs:              0 ave           0 max           0 min
Histogram: 1 0 0 0 0 0 0 0 0 0
FullNghs:         5376 ave        5376 max        5376 min
Histogram: 1 0 0 0 0 0 0 0 0 0

Total # of neighbors = 5376
Ave neighs/atom = 28
Neighbor list builds = 0
Dangerous builds = 0

# Obtain new stress tensor

variable tmp equal pxx
variable pxx1 equal ${tmp}
variable pxx1 equal 0.764222708511712
variable tmp equal pyy
variable pyy1 equal ${tmp}
variable pyy1 equal 1.51424647179451
variable tmp equal pzz
variable pzz1 equal ${tmp}
variable pzz1 equal 0.76422270851285
variable tmp equal pxy
variable pxy1 equal ${tmp}
variable pxy1 equal 4.7161153662756e-10
variable tmp equal pxz
variable pxz1 equal ${tmp}
variable pxz1 equal 3.37364102014294e-09
variable tmp equal pyz
variable pyz1 equal ${tmp}
variable pyz1 equal -1.11248595788952e-09

# Compute elastic constant from pressure tensor

variable C1neg equal ${d1}
variable C1neg equal 76.4222708710208
variable C2neg equal ${d2}
variable C2neg equal 151.424647199813
variable C3neg equal ${d3}
variable C3neg equal 76.422270870972
variable C4neg equal ${d4}
variable C4neg equal -8.12871694438435e-08
variable C5neg equal ${d5}
variable C5neg equal 3.33521145673413e-07
variable C6neg equal ${d6}
variable C6neg equal 3.37046512160014e-08

# Reset box and simulation parameters

clear
OMP_NUM_THREADS environment is not set. Defaulting to 1 thread.
  using 1 OpenMP thread(s) per MPI task
Restoring plugin: Hello world command v1.1 by Axel Kohlmeyer (akohlmey@gmail.com)
WARNING: Overriding built-in command style hello from plugin (src/PLUGIN/plugin.cpp:556)
Loaded 1 plugins from C:\Users\Home\AppData\Local\LAMMPS 64-bit 22Jul2025 with GUI\plugins
box tilt large

The 'box' command has been removed and will be ignored

read_restart restart.equil
Reading restart file ...
  restart file = 22 Jul 2025, LAMMPS = 22 Jul 2025
  restoring atom style atomic from restart
  triclinic box = (-0.00094977841 -0.0014246676 -0.0018995568) to (10.86095 16.291425 21.7219) with tilt (0 0 0)
  1 by 1 by 1 MPI processor grid
  pair style sw stores no restart info
  192 atoms
  read_restart CPU = 0.001 seconds
include potential.mod
# NOTE: This script can be modified for different pair styles
# See in.elastic for more info.

# Choose potential
pair_style	sw
pair_coeff * * Si.sw Si
Reading sw potential file Si.sw with DATE: 2007-06-11

# Setup neighbor style
neighbor 1.0 nsq
neigh_modify once no every 1 delay 0 check yes

# Setup minimization style
min_style	     cg
min_modify	     dmax ${dmax} line quadratic
min_modify	     dmax 0.01 line quadratic

# Setup output
thermo		1
thermo_style custom step temp pe press pxx pyy pzz pxy pxz pyz lx ly lz vol
thermo_modify norm no

# Positive deformation

variable delta equal ${up}*${len0}
variable delta equal 1e-06*${len0}
variable delta equal 1e-06*16.2928493352156
variable deltaxy equal ${up}*xy
variable deltaxy equal 1e-06*xy
variable deltaxz equal ${up}*xz
variable deltaxz equal 1e-06*xz
variable deltayz equal ${up}*yz
variable deltayz equal 1e-06*yz
if "${dir} == 1" then    "change_box all x delta 0 ${delta} xy delta ${deltaxy} xz delta ${deltaxz} remap units box"
if "${dir} == 2" then    "change_box all y delta 0 ${delta} yz delta ${deltayz} remap units box"
change_box all y delta 0 ${delta} yz delta ${deltayz} remap units box
change_box all y delta 0 1.62928493352156e-05 yz delta ${deltayz} remap units box
change_box all y delta 0 1.62928493352156e-05 yz delta 0 remap units box
Changing box ...
  triclinic box = (-0.00094977841 -0.0014246676 -0.0018995568) to (10.86095 16.291441 21.7219) with tilt (0 0 0)
  triclinic box = (-0.00094977841 -0.0014246676 -0.0018995568) to (10.86095 16.291441 21.7219) with tilt (0 0 0)
if "${dir} == 3" then    "change_box all z delta 0 ${delta} remap units box"
if "${dir} == 4" then    "change_box all yz delta ${delta} remap units box"
if "${dir} == 5" then    "change_box all xz delta ${delta} remap units box"
if "${dir} == 6" then    "change_box all xy delta ${delta} remap units box"

# Relax atoms positions

minimize ${etol} ${ftol} ${maxiter} ${maxeval}
minimize 0 ${ftol} ${maxiter} ${maxeval}
minimize 0 1e-10 ${maxiter} ${maxeval}
minimize 0 1e-10 100 ${maxeval}
minimize 0 1e-10 100 1000
Neighbor list info ...
  update: every = 1 steps, delay = 0 steps, check = yes
  max neighbors/atom: 2000, page size: 100000
  master list distance cutoff = 4.77118
  ghost atom cutoff = 4.77118
  1 neighbor lists, perpetual/occasional/extra = 1 0 0
  (1) pair sw, perpetual
      attributes: full, newton on
      pair build: full/nsq
      stencil: none
      bin: none
Per MPI rank memory allocation (min/avg/max) = 4.178 | 4.178 | 4.178 Mbytes
   Step          Temp          PotEng         Press           Pxx            Pyy            Pzz            Pxy            Pxz            Pyz             Lx             Ly             Lz           Volume    
         4   0             -832.6272      -1.0141685     -0.76415775    -1.5141868     -0.76416109    -0.1641171     -0.36432751     0.46825885     10.8619        16.292866      21.723799      3844.4927    
         5   0             -832.6272      -1.0142257     -0.7642171     -1.5142421     -0.7642178      0.040933575    0.090900936   -0.11681807     10.8619        16.292866      21.723799      3844.4927    
         6   0             -832.6272      -1.0142274     -0.76421918    -1.5142438     -0.76421925    -0.036876859   -0.081908395    0.10525313     10.8619        16.292866      21.723799      3844.4927    
         7   0             -832.6272      -1.0142272     -0.76421903    -1.5142434     -0.76421907     0.030627225    0.068031026   -0.087419197    10.8619        16.292866      21.723799      3844.4927    
         8   0             -832.6272      -1.0142271     -0.76421899    -1.5142432     -0.764219      -0.019933881   -0.044281036    0.056899661    10.8619        16.292866      21.723799      3844.4927    
         9   0             -832.6272      -1.0142271     -0.76421899    -1.5142432     -0.76421901     0.015671608    0.034814377   -0.044734834    10.8619        16.292866      21.723799      3844.4927    
        10   0             -832.6272      -1.014227      -0.76421898    -1.5142431     -0.764219      -0.012301189   -0.027327834    0.035114734    10.8619        16.292866      21.723799      3844.4927    
        11   0             -832.6272      -1.014227      -0.76421898    -1.5142431     -0.76421899     0.010005797    0.022229061   -0.028562981    10.8619        16.292866      21.723799      3844.4927    
        12   0             -832.6272      -1.014227      -0.76421898    -1.5142431     -0.76421899    -0.0071144942  -0.015805915    0.020309607    10.8619        16.292866      21.723799      3844.4927    
        13   0             -832.6272      -1.014227      -0.76421898    -1.5142431     -0.76421898     0.0041568241   0.0092351467  -0.011866585    10.8619        16.292866      21.723799      3844.4927    
        14   0             -832.6272      -1.014227      -0.76421898    -1.5142431     -0.76421898    -0.0025975996  -0.0057711601   0.0074156027   10.8619        16.292866      21.723799      3844.4927    
        15   0             -832.6272      -1.014227      -0.76421898    -1.5142431     -0.76421898     0.0015162013   0.0033686868  -0.0043285899   10.8619        16.292866      21.723799      3844.4927    
        16   0             -832.6272      -1.014227      -0.76421898    -1.5142431     -0.76421898    -0.00088782472 -0.0019726552   0.0025347927   10.8619        16.292866      21.723799      3844.4927    
        17   0             -832.6272      -1.014227      -0.76421898    -1.5142431     -0.76421898     0.00056533143  0.0012562017  -0.0016142104   10.8619        16.292866      21.723799      3844.4927    
        18   0             -832.6272      -1.014227      -0.76421898    -1.5142431     -0.76421898    -0.00033359464 -0.00074137207  0.00095270098  10.8619        16.292866      21.723799      3844.4927    
        19   0             -832.6272      -1.014227      -0.76421898    -1.5142431     -0.76421898     0.00016158646  0.00035920618 -0.0004616412   10.8619        16.292866      21.723799      3844.4927    
        20   0             -832.6272      -1.014227      -0.76421898    -1.5142431     -0.76421898    -8.0369276e-05 -0.0001787918   0.00022983475  10.8619        16.292866      21.723799      3844.4927    
        21   0             -832.6272      -1.014227      -0.76421898    -1.5142431     -0.76421898     3.8645937e-05  8.6111342e-05 -0.00011075533  10.8619        16.292866      21.723799      3844.4927    
        22   0             -832.6272      -1.014227      -0.76421898    -1.5142431     -0.76421898    -1.8182986e-05 -4.0643289e-05  5.2330569e-05  10.8619        16.292866      21.723799      3844.4927    
        23   0             -832.6272      -1.014227      -0.76421898    -1.5142431     -0.76421898     1.0035643e-05  2.2605499e-05 -2.9181269e-05  10.8619        16.292866      21.723799      3844.4927    
        24   0             -832.6272      -1.014227      -0.76421898    -1.5142431     -0.76421898    -6.8282125e-06 -1.5626144e-05  2.0277772e-05  10.8619        16.292866      21.723799      3844.4927    
        25   0             -832.6272      -1.014227      -0.76421898    -1.5142431     -0.76421898     2.6878068e-06  6.3723077e-06 -8.3632715e-06  10.8619        16.292866      21.723799      3844.4927    
        26   0             -832.6272      -1.014227      -0.76421898    -1.5142431     -0.76421898    -2.4295777e-06 -6.2305289e-06  8.3701237e-06  10.8619        16.292866      21.723799      3844.4927    
        27   0             -832.6272      -1.014227      -0.76421898    -1.5142431     -0.76421898     1.1397483e-06  3.3344806e-06 -4.6354643e-06  10.8619        16.292866      21.723799      3844.4927    
        28   0             -832.6272      -1.014227      -0.76421898    -1.5142431     -0.76421898    -5.2963934e-07 -1.9680323e-06  2.8746279e-06  10.8619        16.292866      21.723799      3844.4927    
        29   0             -832.6272      -1.014227      -0.76421898    -1.5142431     -0.76421898     3.0434835e-07  1.7858884e-06 -2.7795314e-06  10.8619        16.292866      21.723799      3844.4927    
        30   0             -832.6272      -1.014227      -0.76421898    -1.5142431     -0.76421898    -9.9020083e-08 -1.1850864e-06  1.944374e-06   10.8619        16.292866      21.723799      3844.4927    
        31   0             -832.6272      -1.014227      -0.76421898    -1.5142431     -0.76421898     2.1119165e-08  1.1126317e-06 -1.8952506e-06  10.8619        16.292866      21.723799      3844.4927    
        32   0             -832.6272      -1.014227      -0.76421898    -1.5142431     -0.76421898     3.4148042e-08 -9.3544312e-07  1.6438466e-06  10.8619        16.292866      21.723799      3844.4927    
        33   0             -832.6272      -1.014227      -0.76421898    -1.5142431     -0.76421898    -6.2320313e-08  8.0215663e-07 -1.4416375e-06  10.8619        16.292866      21.723799      3844.4927    
        34   0             -832.6272      -1.014227      -0.76421898    -1.5142431     -0.76421898     5.8772692e-08 -5.877578e-07   1.0689155e-06  10.8619        16.292866      21.723799      3844.4927    
        35   0             -832.6272      -1.014227      -0.76421898    -1.5142431     -0.76421898    -8.0154661e-08  7.0248639e-07 -1.287041e-06   10.8619        16.292866      21.723799      3844.4927    
        36   0             -832.6272      -1.014227      -0.76421898    -1.5142431     -0.76421898     9.6890211e-08 -8.1716847e-07  1.500729e-06   10.8619        16.292866      21.723799      3844.4927    
        37   0             -832.6272      -1.014227      -0.76421898    -1.5142431     -0.76421898    -9.5662029e-08  7.9784815e-07 -1.4663776e-06  10.8619        16.292866      21.723799      3844.4927    
        38   0             -832.6272      -1.014227      -0.76421898    -1.5142431     -0.76421898     8.7775686e-08 -7.2683955e-07  1.336417e-06   10.8619        16.292866      21.723799      3844.4927    
        39   0             -832.6272      -1.014227      -0.76421898    -1.5142431     -0.76421898    -9.7775454e-08  8.0790175e-07 -1.48558e-06    10.8619        16.292866      21.723799      3844.4927    
        40   0             -832.6272      -1.014227      -0.76421898    -1.5142431     -0.76421898     8.8027231e-08 -7.2606925e-07  1.3351834e-06  10.8619        16.292866      21.723799      3844.4927    
        41   0             -832.6272      -1.014227      -0.76421898    -1.5142431     -0.76421898    -9.8285219e-08  8.0919744e-07 -1.4881799e-06  10.8619        16.292866      21.723799      3844.4927    
        42   0             -832.6272      -1.014227      -0.76421898    -1.5142431     -0.76421898     1.8539005e-07 -1.5245781e-06  2.803905e-06   10.8619        16.292866      21.723799      3844.4927    
        43   0             -832.6272      -1.014227      -0.76421898    -1.5142431     -0.76421898    -1.0905956e-07  8.9586843e-07 -1.6477266e-06  10.8619        16.292866      21.723799      3844.4927    
        44   0             -832.6272      -1.014227      -0.76421898    -1.5142431     -0.76421898     1.486511e-07  -1.2210983e-06  2.2460484e-06  10.8619        16.292866      21.723799      3844.4927    
        45   0             -832.6272      -1.014227      -0.76421898    -1.5142431     -0.76421898    -1.0598209e-07  8.7117494e-07 -1.6025312e-06  10.8619        16.292866      21.723799      3844.4927    
        46   0             -832.6272      -1.014227      -0.76421898    -1.5142431     -0.76421898     5.1525649e-08 -4.2437015e-07  7.8078491e-07  10.8619        16.292866      21.723799      3844.4927    
        47   0             -832.6272      -1.014227      -0.76421898    -1.5142431     -0.76421898    -3.1088833e-08  2.5665915e-07 -4.7239053e-07  10.8619        16.292866      21.723799      3844.4927    
        48   0             -832.6272      -1.014227      -0.76421898    -1.5142431     -0.76421898     1.1838637e-08 -9.8640542e-08  1.8180312e-07  10.8619        16.292866      21.723799      3844.4927    
        49   0             -832.6272      -1.014227      -0.76421898    -1.5142431     -0.76421898    -5.3506133e-09  4.5016542e-08 -8.3299441e-08  10.8619        16.292866      21.723799      3844.4927    
        50   0             -832.6272      -1.014227      -0.76421898    -1.5142431     -0.76421898     2.6643076e-09 -2.2425307e-08  4.1833604e-08  10.8619        16.292866      21.723799      3844.4927    
        51   0             -832.6272      -1.014227      -0.76421898    -1.5142431     -0.76421898    -1.486056e-09   1.2805887e-08 -2.4340412e-08  10.8619        16.292866      21.723799      3844.4927    
        52   0             -832.6272      -1.014227      -0.76421898    -1.5142431     -0.76421898     4.397971e-10  -4.3968542e-09  8.581447e-09   10.8619        16.292866      21.723799      3844.4927    
        53   0             -832.6272      -1.014227      -0.76421898    -1.5142431     -0.76421898    -3.7411433e-11  1.7875091e-09 -3.5607246e-09  10.8619        16.292866      21.723799      3844.4927    
Loop time of 0.023864 on 1 procs for 49 steps with 192 atoms

131.0% CPU use with 1 MPI tasks x 1 OpenMP threads

Minimization stats:
  Stopping criterion = force tolerance
  Energy initial, next-to-last, final = 
     -832.627199818538  -832.627199982312  -832.627199982312
  Force two-norm initial, final = 0.0029110868 7.4116972e-11
  Force max component initial, final = 0.00032517379 8.0012155e-12
  Final line search alpha, max atom move = 1 8.0012155e-12
  Iterations, force evaluations = 49 98

MPI task timing breakdown:
Section |  min time  |  avg time  |  max time  |%varavg| %total
---------------------------------------------------------------
Pair    | 0.017057   | 0.017057   | 0.017057   |   0.0 | 71.48
Neigh   | 0          | 0          | 0          |   0.0 |  0.00
Comm    | 0.000249   | 0.000249   | 0.000249   |   0.0 |  1.04
Output  | 0.006034   | 0.006034   | 0.006034   |   0.0 | 25.28
Modify  | 0          | 0          | 0          |   0.0 |  0.00
Other   |            | 0.000524   |            |       |  2.20

Nlocal:            192 ave         192 max         192 min
Histogram: 1 0 0 0 0 0 0 0 0 0
Nghost:            634 ave         634 max         634 min
Histogram: 1 0 0 0 0 0 0 0 0 0
Neighs:              0 ave           0 max           0 min
Histogram: 1 0 0 0 0 0 0 0 0 0
FullNghs:         5376 ave        5376 max        5376 min
Histogram: 1 0 0 0 0 0 0 0 0 0

Total # of neighbors = 5376
Ave neighs/atom = 28
Neighbor list builds = 0
Dangerous builds = 0

# Obtain new stress tensor

variable tmp equal pe
variable e1 equal ${tmp}
variable e1 equal -832.627199982312
variable tmp equal press
variable p1 equal ${tmp}
variable p1 equal -1.01422702246255
variable tmp equal pxx
variable pxx1 equal ${tmp}
variable pxx1 equal -0.764218977158466
variable tmp equal pyy
variable pyy1 equal ${tmp}
variable pyy1 equal -1.51424311307073
variable tmp equal pzz
variable pzz1 equal ${tmp}
variable pzz1 equal -0.764218977158467
variable tmp equal pxy
variable pxy1 equal ${tmp}
variable pxy1 equal -3.74114325053227e-11
variable tmp equal pxz
variable pxz1 equal ${tmp}
variable pxz1 equal 1.78750908493932e-09
variable tmp equal pyz
variable pyz1 equal ${tmp}
variable pyz1 equal -3.56072456531225e-09

# Compute elastic constant from pressure tensor

variable C1pos equal ${d1}
variable C1pos equal 76.421897695997
variable C2pos equal ${d2}
variable C2pos equal 151.424311286711
variable C3pos equal ${d3}
variable C3pos equal 76.4218976961597
variable C4pos equal ${d4}
variable C4pos equal 3.26111030186116e-07
variable C5pos equal ${d5}
variable C5pos equal -1.74907952153051e-07
variable C6pos equal ${d6}
variable C6pos equal 1.71976456972869e-08

# Combine positive and negative

variable C1${dir} equal 0.5*(${C1neg}+${C1pos})
variable C12 equal 0.5*(${C1neg}+${C1pos})
variable C12 equal 0.5*(76.4222708710208+${C1pos})
variable C12 equal 0.5*(76.4222708710208+76.421897695997)
variable C2${dir} equal 0.5*(${C2neg}+${C2pos})
variable C22 equal 0.5*(${C2neg}+${C2pos})
variable C22 equal 0.5*(151.424647199813+${C2pos})
[...]
        15   0             -832.6272      -1.8466709e-07 -5.7618618e-07  1.7232779e-07 -1.5014286e-07 -0.56142409     0.0016047881  -0.002061733    10.8619        16.292849      21.723799      3844.4888    
        16   0             -832.6272      -1.8167784e-07 -5.8004996e-07  1.7661389e-07 -1.4159746e-07 -0.56624952    -0.00091831811  0.0011796961   10.8619        16.292849      21.723799      3844.4888    
        17   0             -832.6272      -1.8260392e-07 -5.7746033e-07  1.7491682e-07 -1.4526827e-07 -0.56339042     0.00057685944 -0.00074094419  10.8619        16.292849      21.723799      3844.4888    
        18   0             -832.6272      -1.8135259e-07 -5.7848089e-07  1.7662214e-07 -1.4219902e-07 -0.56513999    -0.00033832258  0.00043443493  10.8619        16.292849      21.723799      3844.4888    
        19   0             -832.6272      -1.8163581e-07 -5.7754191e-07  1.7609982e-07 -1.4346534e-07 -0.56418084     0.00016364379 -0.00021001398  10.8619        16.292849      21.723799      3844.4888    
        20   0             -832.6272      -1.8129801e-07 -5.7773108e-07  1.7659337e-07 -1.4275633e-07 -0.56464928    -8.1800159e-05  0.00010482334  10.8619        16.292849      21.723799      3844.4888    
        21   0             -832.6272      -1.8138203e-07 -5.7747702e-07  1.7646301e-07 -1.4313209e-07 -0.56441771     3.9861914e-05 -5.0918082e-05  10.8619        16.292849      21.723799      3844.4888    
        22   0             -832.6272      -1.8131233e-07 -5.7751487e-07  1.7656888e-07 -1.4299101e-07 -0.56452963    -1.9261734e-05  2.4455099e-05  10.8619        16.292849      21.723799      3844.4888    
        23   0             -832.6272      -1.8135458e-07 -5.7745429e-07  1.7652066e-07 -1.4313012e-07 -0.56447244     1.1325526e-05 -1.4182272e-05  10.8619        16.292849      21.723799      3844.4888    
        24   0             -832.6272      -1.8127441e-07 -5.7740205e-07  1.76608e-07   -1.4302916e-07 -0.56450891    -8.6917361e-06  1.0622216e-05  10.8619        16.292849      21.723799      3844.4888    
        25   0             -832.6272      -1.8128633e-07 -5.7736903e-07  1.7659749e-07 -1.4308744e-07 -0.56448608     4.3100762e-06 -5.0582e-06     10.8619        16.292849      21.723799      3844.4888    
        26   0             -832.6272      -1.8128654e-07 -5.7738473e-07  1.7660623e-07 -1.430811e-07  -0.56450245    -5.7856751e-06  6.4369053e-06  10.8619        16.292849      21.723799      3844.4888    
        27   0             -832.6272      -1.8125905e-07 -5.7733414e-07  1.7663502e-07 -1.4307805e-07 -0.56448693     4.3671513e-06 -4.6507441e-06  10.8619        16.292849      21.723799      3844.4888    
        28   0             -832.6272      -1.8125136e-07 -5.773443e-07   1.7665655e-07 -1.4306632e-07 -0.56449857    -3.7096398e-06  3.819098e-06   10.8619        16.292849      21.723799      3844.4888    
        29   0             -832.6272      -1.8127272e-07 -5.7734205e-07  1.7662403e-07 -1.4310015e-07 -0.56448691     4.7617516e-06 -4.7896158e-06  10.8619        16.292849      21.723799      3844.4888    
        30   0             -832.6272      -1.8128289e-07 -5.7736715e-07  1.7661882e-07 -1.4310033e-07 -0.56449867    -3.9751326e-06  3.9517786e-06  10.8619        16.292849      21.723799      3844.4888    
        31   0             -832.6272      -1.8128674e-07 -5.7735554e-07  1.7660856e-07 -1.4311322e-07 -0.56448768     4.3008839e-06 -4.2496741e-06  10.8619        16.292849      21.723799      3844.4888    
        32   0             -832.6272      -1.8129634e-07 -5.7738069e-07  1.7660124e-07 -1.4310957e-07 -0.56449866    -4.0263929e-06  3.9621556e-06  10.8619        16.292849      21.723799      3844.4888    
        33   0             -832.6272      -1.8129666e-07 -5.7736003e-07  1.7659131e-07 -1.4312126e-07 -0.56448851     3.712982e-06  -3.6443779e-06  10.8619        16.292849      21.723799      3844.4888    
        34   0             -832.6272      -1.8126059e-07 -5.7734305e-07  1.7663846e-07 -1.430772e-07  -0.56449705    -2.8215116e-06  2.7660272e-06  10.8619        16.292849      21.723799      3844.4888    
        35   0             -832.6272      -1.8126531e-07 -5.7733099e-07  1.7662448e-07 -1.4308942e-07 -0.56448887     3.44489e-06   -3.3748163e-06  10.8619        16.292849      21.723799      3844.4888    
        36   0             -832.6272      -1.8127807e-07 -5.7736721e-07  1.7662145e-07 -1.4308844e-07 -0.5644986     -4.0160739e-06  3.9334002e-06  10.8619        16.292849      21.723799      3844.4888    
        37   0             -832.6272      -1.8128833e-07 -5.7735418e-07  1.7660611e-07 -1.4311692e-07 -0.56448832     3.8686257e-06 -3.7886263e-06  10.8619        16.292849      21.723799      3844.4888    
        38   0             -832.6272      -1.8126322e-07 -5.7734755e-07  1.7663546e-07 -1.4307756e-07 -0.56449786    -3.4446059e-06  3.373078e-06   10.8619        16.292849      21.723799      3844.4888    
        39   0             -832.6272      -1.812452e-07  -5.7732265e-07  1.766532e-07  -1.4306617e-07 -0.56448871     3.5741807e-06 -3.4998305e-06  10.8619        16.292849      21.723799      3844.4888    
        40   0             -832.6272      -1.8126898e-07 -5.7735706e-07  1.7663277e-07 -1.4308266e-07 -0.56449712    -2.8770841e-06  2.8171597e-06  10.8619        16.292849      21.723799      3844.4888    
        41   0             -832.6272      -1.8127304e-07 -5.7734419e-07  1.7662033e-07 -1.4309525e-07 -0.56449004     2.5556095e-06 -2.5023726e-06  10.8619        16.292849      21.723799      3844.4888    
        42   0             -832.6272      -1.8133859e-07 -5.7742013e-07  1.7655351e-07 -1.4314914e-07 -0.56449712    -2.8768265e-06  2.8168808e-06  10.8619        16.292849      21.723799      3844.4888    
        43   0             -832.6272      -1.8126725e-07 -5.773457e-07   1.7663678e-07 -1.4309284e-07 -0.56449214     9.3902067e-07 -9.1945733e-07  10.8619        16.292849      21.723799      3844.4888    
        44   0             -832.6272      -1.812872e-07  -5.7736964e-07  1.7660411e-07 -1.4309605e-07 -0.56449433    -7.3608208e-07  7.2068768e-07  10.8619        16.292849      21.723799      3844.4888    
        45   0             -832.6272      -1.8129749e-07 -5.7737737e-07  1.7660245e-07 -1.4311755e-07 -0.56449297     3.0882118e-07 -3.023172e-07   10.8619        16.292849      21.723799      3844.4888    
        46   0             -832.6272      -1.8129565e-07 -5.7737262e-07  1.7659995e-07 -1.4311429e-07 -0.56449353    -1.2473892e-07  1.2209576e-07  10.8619        16.292849      21.723799      3844.4888    
        47   0             -832.6272      -1.8126403e-07 -5.7734241e-07  1.7662876e-07 -1.4307845e-07 -0.56449328     6.687929e-08  -6.5523522e-08  10.8619        16.292849      21.723799      3844.4888    
        48   0             -832.6272      -1.8130252e-07 -5.7737799e-07  1.7659415e-07 -1.431237e-07  -0.5644934     -2.4655596e-08  2.4351407e-08  10.8619        16.292849      21.723799      3844.4888    
        49   0             -832.6272      -1.8127713e-07 -5.7735595e-07  1.7661773e-07 -1.4309316e-07 -0.56449335     1.0957574e-08 -1.1088124e-08  10.8619        16.292849      21.723799      3844.4888    
        50   0             -832.6272      -1.8127059e-07 -5.7735148e-07  1.7662655e-07 -1.4308684e-07 -0.56449337    -5.3202455e-09  5.6137633e-09  10.8619        16.292849      21.723799      3844.4888    
        51   0             -832.6272      -1.8127397e-07 -5.7735796e-07  1.7662623e-07 -1.4309018e-07 -0.56449336     2.9175947e-09 -3.3746364e-09  10.8619        16.292849      21.723799      3844.4888    
        52   0             -832.6272      -1.8127544e-07 -5.7735569e-07  1.766294e-07  -1.4310002e-07 -0.56449337    -9.9192241e-10  1.2014138e-09  10.8619        16.292849      21.723799      3844.4888    
        53   0             -832.6272      -1.8125998e-07 -5.7734395e-07  1.7663951e-07 -1.4307551e-07 -0.56449337     4.2590836e-10 -5.073198e-10   10.8619        16.292849      21.723799      3844.4888    
Loop time of 0.02338 on 1 procs for 49 steps with 192 atoms

66.8% CPU use with 1 MPI tasks x 1 OpenMP threads

Minimization stats:
  Stopping criterion = force tolerance
  Energy initial, next-to-last, final = 
     -832.627199818644  -832.627199983437  -832.627199983437
  Force two-norm initial, final = 0.0029240333 7.4088437e-11
  Force max component initial, final = 0.00034077729 7.9574786e-12
  Final line search alpha, max atom move = 1 7.9574786e-12
  Iterations, force evaluations = 49 98

MPI task timing breakdown:
Section |  min time  |  avg time  |  max time  |%varavg| %total
---------------------------------------------------------------
Pair    | 0.016771   | 0.016771   | 0.016771   |   0.0 | 71.73
Neigh   | 0          | 0          | 0          |   0.0 |  0.00
Comm    | 0.000209   | 0.000209   | 0.000209   |   0.0 |  0.89
Output  | 0.005905   | 0.005905   | 0.005905   |   0.0 | 25.26
Modify  | 0          | 0          | 0          |   0.0 |  0.00
Other   |            | 0.000495   |            |       |  2.12

Nlocal:            192 ave         192 max         192 min
Histogram: 1 0 0 0 0 0 0 0 0 0
Nghost:            634 ave         634 max         634 min
Histogram: 1 0 0 0 0 0 0 0 0 0
Neighs:              0 ave           0 max           0 min
Histogram: 1 0 0 0 0 0 0 0 0 0
FullNghs:         5376 ave        5376 max        5376 min
Histogram: 1 0 0 0 0 0 0 0 0 0

Total # of neighbors = 5376
Ave neighs/atom = 28
Neighbor list builds = 0
Dangerous builds = 0

# Obtain new stress tensor

variable tmp equal pe
variable e1 equal ${tmp}
variable e1 equal -832.627199983437
variable tmp equal press
variable p1 equal ${tmp}
variable p1 equal -1.81259983860727e-07
variable tmp equal pxx
variable pxx1 equal ${tmp}
variable pxx1 equal -5.77343950610052e-07
variable tmp equal pyy
variable pyy1 equal ${tmp}
variable pyy1 equal 1.76639512737663e-07
variable tmp equal pzz
variable pzz1 equal ${tmp}
variable pzz1 equal -1.43075513709791e-07
variable tmp equal pxy
variable pxy1 equal ${tmp}
variable pxy1 equal -0.564493367723468
variable tmp equal pxz
variable pxz1 equal ${tmp}
variable pxz1 equal 4.25908364679533e-10
variable tmp equal pyz
variable pyz1 equal ${tmp}
variable pyz1 equal -5.07319796383119e-10

# Compute elastic constant from pressure tensor

variable C1pos equal ${d1}
variable C1pos equal 5.77145454441039e-05
variable C2pos equal ${d2}
variable C2pos equal -1.76843131925528e-05
variable C3pos equal ${d3}
variable C3pos equal 1.42878643895969e-05
variable C4pos equal ${d4}
variable C4pos equal 2.07705532932034e-08
variable C5pos equal ${d5}
variable C5pos equal -3.87478801270727e-08
variable C6pos equal ${d6}
variable C6pos equal 56.4493367858033

# Combine positive and negative

variable C1${dir} equal 0.5*(${C1neg}+${C1pos})
variable C16 equal 0.5*(${C1neg}+${C1pos})
variable C16 equal 0.5*(-5.77146611490328e-05+${C1pos})
variable C16 equal 0.5*(-5.77146611490328e-05+5.77145454441039e-05)
variable C2${dir} equal 0.5*(${C2neg}+${C2pos})
variable C26 equal 0.5*(${C2neg}+${C2pos})
variable C26 equal 0.5*(1.76833592980444e-05+${C2pos})
variable C26 equal 0.5*(1.76833592980444e-05+-1.76843131925528e-05)
variable C3${dir} equal 0.5*(${C3neg}+${C3pos})
variable C36 equal 0.5*(${C3neg}+${C3pos})
variable C36 equal 0.5*(-1.42886558913621e-05+${C3pos})
variable C36 equal 0.5*(-1.42886558913621e-05+1.42878643895969e-05)
variable C4${dir} equal 0.5*(${C4neg}+${C4pos})
variable C46 equal 0.5*(${C4neg}+${C4pos})
variable C46 equal 0.5*(-3.27550008893404e-08+${C4pos})
variable C46 equal 0.5*(-3.27550008893404e-08+2.07705532932034e-08)
variable C5${dir} equal 0.5*(${C5neg}+${C5pos})
variable C56 equal 0.5*(${C5neg}+${C5pos})
variable C56 equal 0.5*(4.21416626708632e-07+${C5pos})
variable C56 equal 0.5*(4.21416626708632e-07+-3.87478801270727e-08)
variable C6${dir} equal 0.5*(${C6neg}+${C6pos})
variable C66 equal 0.5*(${C6neg}+${C6pos})
variable C66 equal 0.5*(56.4493364659235+${C6pos})
variable C66 equal 0.5*(56.4493364659235+56.4493367858033)

# Delete dir to make sure it is not reused

variable dir delete

# Output final values

variable C11all equal ${C11}
variable C11all equal 151.424479263956
variable C22all equal ${C22}
variable C22all equal 151.424479243262
variable C33all equal ${C33}
variable C33all equal 151.424479260127

variable C12all equal 0.5*(${C12}+${C21})
variable C12all equal 0.5*(76.4220842835089+${C21})
variable C12all equal 0.5*(76.4220842835089+76.4220842965305)
variable C13all equal 0.5*(${C13}+${C31})
variable C13all equal 0.5*(76.4220842927633+${C31})
variable C13all equal 0.5*(76.4220842927633+76.4220842962295)
variable C23all equal 0.5*(${C23}+${C32})
variable C23all equal 0.5*(76.4220842924543+${C32})
variable C23all equal 0.5*(76.4220842924543+76.4220842835659)

variable C44all equal ${C44}
variable C44all equal 56.449336860969
variable C55all equal ${C55}
variable C55all equal 56.4493367301914
variable C66all equal ${C66}
variable C66all equal 56.4493366258634

variable C14all equal 0.5*(${C14}+${C41})
variable C14all equal 0.5*(-6.88442438599643e-10+${C41})
variable C14all equal 0.5*(-6.88442438599643e-10+-9.89278755134068e-08)
variable C15all equal 0.5*(${C15}+${C51})
variable C15all equal 0.5*(-1.06491835979999e-09+${C51})
variable C15all equal 0.5*(-1.06491835979999e-09+-6.3362004354708e-08)
variable C16all equal 0.5*(${C16}+${C61})
variable C16all equal 0.5*(-5.78524644504049e-11+${C61})
variable C16all equal 0.5*(-5.78524644504049e-11+-4.81240702993312e-08)

variable C24all equal 0.5*(${C24}+${C42})
variable C24all equal 0.5*(-2.6512606234982e-10+${C42})
variable C24all equal 0.5*(-2.6512606234982e-10+1.22411930371136e-07)
variable C25all equal 0.5*(${C25}+${C52})
variable C25all equal 0.5*(-1.17054902095039e-09+${C52})
variable C25all equal 0.5*(-1.17054902095039e-09+7.9306596760181e-08)
variable C26all equal 0.5*(${C26}+${C62})
variable C26all equal 0.5*(-4.76947254199409e-10+${C62})
variable C26all equal 0.5*(-4.76947254199409e-10+2.54511484566442e-08)

variable C34all equal 0.5*(${C34}+${C43})
variable C34all equal 0.5*(-7.04581942999498e-10+${C43})
variable C34all equal 0.5*(-7.04581942999498e-10+4.9343066470185e-09)
variable C35all equal 0.5*(${C35}+${C53})
variable C35all equal 0.5*(-1.50397333510044e-09+${C53})
variable C35all equal 0.5*(-1.50397333510044e-09+3.71841542338965e-08)
variable C36all equal 0.5*(${C36}+${C63})
variable C36all equal 0.5*(-3.95750882599932e-10+${C63})
variable C36all equal 0.5*(-3.95750882599932e-10+1.04694218854129e-07)

variable C45all equal 0.5*(${C45}+${C54})
variable C45all equal 0.5*(-1.50927301899909e-07+${C54})
variable C45all equal 0.5*(-1.50927301899909e-07+-9.60328789879684e-07)
variable C46all equal 0.5*(${C46}+${C64})
variable C46all equal 0.5*(-5.9922237980685e-09+${C64})
variable C46all equal 0.5*(-5.9922237980685e-09+-2.59892574185375e-07)
variable C56all equal 0.5*(${C56}+${C65})
variable C56all equal 0.5*(1.9133437329078e-07+${C65})
variable C56all equal 0.5*(1.9133437329078e-07+1.24210377628869e-07)

# Average moduli for cubic crystals

variable C11cubic equal (${C11all}+${C22all}+${C33all})/3.0
variable C11cubic equal (151.424479263956+${C22all}+${C33all})/3.0
variable C11cubic equal (151.424479263956+151.424479243262+${C33all})/3.0
variable C11cubic equal (151.424479263956+151.424479243262+151.424479260127)/3.0
variable C12cubic equal (${C12all}+${C13all}+${C23all})/3.0
variable C12cubic equal (76.4220842900197+${C13all}+${C23all})/3.0
variable C12cubic equal (76.4220842900197+76.4220842944964+${C23all})/3.0
variable C12cubic equal (76.4220842900197+76.4220842944964+76.4220842880101)/3.0
variable C44cubic equal (${C44all}+${C55all}+${C66all})/3.0
variable C44cubic equal (56.449336860969+${C55all}+${C66all})/3.0
variable C44cubic equal (56.449336860969+56.4493367301914+${C66all})/3.0
variable C44cubic equal (56.449336860969+56.4493367301914+56.4493366258634)/3.0

variable bulkmodulus equal (${C11cubic}+2*${C12cubic})/3.0
variable bulkmodulus equal (151.424479255782+2*${C12cubic})/3.0
variable bulkmodulus equal (151.424479255782+2*76.4220842908421)/3.0
variable shearmodulus1 equal ${C44cubic}
variable shearmodulus1 equal 56.4493367390079
variable shearmodulus2 equal (${C11cubic}-${C12cubic})/2.0
variable shearmodulus2 equal (151.424479255782-${C12cubic})/2.0
variable shearmodulus2 equal (151.424479255782-76.4220842908421)/2.0
variable poissonratio equal 1.0/(1.0+${C11cubic}/${C12cubic})
variable poissonratio equal 1.0/(1.0+151.424479255782/${C12cubic})
variable poissonratio equal 1.0/(1.0+151.424479255782/76.4220842908421)

# For Stillinger-Weber silicon, the analytical results
# are known to be (E. R. Cowley, 1988):
#               C11 = 151.4 GPa
#               C12 = 76.4 GPa
#               C44 = 56.4 GPa

print "========================================="
=========================================
print "Components of the Elastic Constant Tensor"
Components of the Elastic Constant Tensor
print "========================================="
=========================================

print "Elastic Constant C11all = ${C11all} ${cunits}"
Elastic Constant C11all = 151.424479263956 GPa
print "Elastic Constant C22all = ${C22all} ${cunits}"
Elastic Constant C22all = 151.424479243262 GPa
print "Elastic Constant C33all = ${C33all} ${cunits}"
Elastic Constant C33all = 151.424479260127 GPa

print "Elastic Constant C12all = ${C12all} ${cunits}"
Elastic Constant C12all = 76.4220842900197 GPa
print "Elastic Constant C13all = ${C13all} ${cunits}"
Elastic Constant C13all = 76.4220842944964 GPa
print "Elastic Constant C23all = ${C23all} ${cunits}"
Elastic Constant C23all = 76.4220842880101 GPa

print "Elastic Constant C44all = ${C44all} ${cunits}"
Elastic Constant C44all = 56.449336860969 GPa
print "Elastic Constant C55all = ${C55all} ${cunits}"
Elastic Constant C55all = 56.4493367301914 GPa
print "Elastic Constant C66all = ${C66all} ${cunits}"
Elastic Constant C66all = 56.4493366258634 GPa

print "Elastic Constant C14all = ${C14all} ${cunits}"
Elastic Constant C14all = -4.98081589760032e-08 GPa
print "Elastic Constant C15all = ${C15all} ${cunits}"
Elastic Constant C15all = -3.2213461357254e-08 GPa
print "Elastic Constant C16all = ${C16all} ${cunits}"
Elastic Constant C16all = -2.40909613818908e-08 GPa

print "Elastic Constant C24all = ${C24all} ${cunits}"
Elastic Constant C24all = 6.10734021543931e-08 GPa
print "Elastic Constant C25all = ${C25all} ${cunits}"
Elastic Constant C25all = 3.90680238696153e-08 GPa
print "Elastic Constant C26all = ${C26all} ${cunits}"
Elastic Constant C26all = 1.24871006012224e-08 GPa

print "Elastic Constant C34all = ${C34all} ${cunits}"
Elastic Constant C34all = 2.1148623520095e-09 GPa
print "Elastic Constant C35all = ${C35all} ${cunits}"
Elastic Constant C35all = 1.7840090449398e-08 GPa
print "Elastic Constant C36all = ${C36all} ${cunits}"
Elastic Constant C36all = 5.21492339857645e-08 GPa

print "Elastic Constant C45all = ${C45all} ${cunits}"
Elastic Constant C45all = -5.55628045889796e-07 GPa
print "Elastic Constant C46all = ${C46all} ${cunits}"
Elastic Constant C46all = -1.32942398991722e-07 GPa
print "Elastic Constant C56all = ${C56all} ${cunits}"
Elastic Constant C56all = 1.57772375459824e-07 GPa

print "========================================="
=========================================
print "Average properties for a cubic crystal"
Average properties for a cubic crystal
print "========================================="
=========================================

print "Bulk Modulus = ${bulkmodulus} ${cunits}"
Bulk Modulus = 101.422882612489 GPa
print "Shear Modulus 1 = ${shearmodulus1} ${cunits}"
Shear Modulus 1 = 56.4493367390079 GPa
print "Shear Modulus 2 = ${shearmodulus2} ${cunits}"
Shear Modulus 2 = 37.5011974824699 GPa
print "Poisson Ratio = ${poissonratio}"
Poisson Ratio = 0.33541030025324
Total wall time: 0:00:00
