ITEM: TIMESTEP
31
ITEM: NUMBER OF ATOMS
432
ITEM: BOX BOUNDS xy xz yz pp pp pp
0.0000000000000000e+00 9.8200000000000003e+00 0.0000000000000000e+00
0.0000000000000000e+00 2.5513108395489539e+01 0.0000000000000000e+00
0.0000000000000000e+00 2.1719999999999999e+01 0.0000000000000000e+00
ITEM: ATOMS id type x y z
1 2 1.22791 5.56323 0.511268
2 2 1.2278 2.94109 4.90551
3 1 1.07202 1.85687 3.6132
4 1 2.76597 5.88588e-06 -0.00662381
5 2 1.74918 0.407355 4.13112
6 2 3.68292 1.31104 0.51126
7 2 1.93298 2.53377 2.32084
10 1 1.07204 6.64751 1.80351
18 2 1.93298 5.97059 3.09587
19 1 3.52703 2.39532 1.8035
21 1 5.22098 4.25219 -0.00662386
22 2 4.20419 4.65955 4.13112
23 2 6.13791 5.56323 0.511268
25 2 4.2041 3.84487 1.28558
26 2 6.1378 2.94109 4.90551
27 2 4.38799 1.7184 3.09586
28 1 5.98202 1.85687 3.6132
29 1 7.67597 5.88587e-06 -0.00662381
30 2 6.65918 0.407355 4.13112
31 2 8.59292 1.31104 0.51126
32 2 6.84298 2.53377 2.32084
53 1 5.98204 6.64751 1.80351
61 2 6.84298 5.97059 3.09587
62 1 8.43703 2.39532 1.8035
64 1 10.131 4.25219 -0.00662386
65 2 9.11419 4.65955 4.13112
67 2 9.1141 3.84487 1.28558
68 2 9.29799 1.7184 3.09586
109 2 1.22791 5.56323 5.94127
112 1 2.76597 5.88734e-06 5.42338
114 2 3.68292 1.31104 5.94126
118 1 1.07204 6.64751 7.23351
127 1 3.52703 2.39532 7.2335
129 1 5.22098 4.25219 5.42338
131 2 6.13791 5.56323 5.94127
133 2 4.2041 3.84487 6.71558
137 1 7.67597 5.88735e-06 5.42338
139 2 8.59292 1.31104 5.94126
161 1 5.98204 6.64751 7.23351
170 1 8.43703 2.39532 7.2335
172 1 10.131 4.25219 5.42338
175 2 9.1141 3.84487 6.71558
9 2 1.2278 11.4455 4.90551
11 1 1.07202 10.3612 3.6132
12 1 2.76597 8.50438 -0.00662381
13 2 1.74918 8.91172 4.13112
14 2 3.68292 9.81541 0.51126
15 2 1.93298 11.0381 2.32084
16 2 1.74909 8.09706 1.28558
17 2 3.68281 7.19328 4.90552
20 1 3.52701 6.10906 3.61321
24 2 4.38799 6.78596 2.32085
44 1 3.52703 10.8997 1.8035
46 1 5.22098 12.7566 -0.00662386
50 2 4.2041 12.3492 1.28558
51 2 6.1378 11.4455 4.90551
52 2 4.38799 10.2228 3.09586
54 1 5.98202 10.3612 3.6132
55 1 7.67597 8.50438 -0.00662381
56 2 6.65918 8.91172 4.13112
57 2 8.59292 9.81541 0.51126
58 2 6.84298 11.0381 2.32084
59 2 6.65909 8.09706 1.28558
60 2 8.59281 7.19328 4.90552
63 1 8.43701 6.10906 3.61321
66 2 9.29799 6.78596 2.32085
91 1 8.43703 10.8997 1.8035
93 1 10.131 12.7566 -0.00662386
96 2 9.1141 12.3492 1.28558
97 2 9.29799 10.2228 3.09586
120 1 2.76597 8.50438 5.42338
122 2 3.68292 9.81541 5.94126
124 2 1.74909 8.09706 6.71558
152 1 3.52703 10.8997 7.2335
154 1 5.22098 12.7566 5.42338
158 2 4.2041 12.3492 6.71558
163 1 7.67597 8.50438 5.42338
165 2 8.59292 9.81541 5.94126
167 2 6.65909 8.09706 6.71558
199 1 8.43703 10.8997 7.2335
201 1 10.131 12.7566 5.42338
204 2 9.1141 12.3492 6.71558
8 2 1.22791 14.0676 0.511268
35 1 1.07204 15.1519 1.80351
37 1 2.76597 17.0087 -0.00662381
38 2 1.74918 17.4161 4.13112
39 2 3.68292 18.3198 0.51126
41 2 1.74909 16.6014 1.28558
42 2 3.68281 15.6976 4.90552
43 2 1.93298 14.475 3.09587
45 1 3.52701 14.6134 3.61321
47 2 4.20419 13.1639 4.13112
48 2 6.13791 14.0676 0.511268
49 2 4.38799 15.2903 2.32085
73 1 3.52703 19.4041 1.8035
81 2 4.38799 18.7271 3.09586
82 1 5.98204 15.1519 1.80351
84 1 7.67597 17.0087 -0.00662381
85 2 6.65918 17.4161 4.13112
86 2 8.59292 18.3198 0.51126
88 2 6.65909 16.6014 1.28558
89 2 8.59281 15.6976 4.90552
90 2 6.84298 14.475 3.09587
92 1 8.43701 14.6134 3.61321
94 2 9.11419 13.1639 4.13112
95 2 9.29799 15.2903 2.32085
102 1 8.43703 19.4041 1.8035
108 2 9.29799 18.7271 3.09586
116 2 1.22791 14.0676 5.94127
143 1 1.07204 15.1519 7.23351
145 1 2.76597 17.0087 5.42338
147 2 3.68292 18.3198 5.94126
149 2 1.74909 16.6014 6.71558
156 2 6.13791 14.0676 5.94127
181 1 3.52703 19.4041 7.2335
190 1 5.98204 15.1519 7.23351
192 1 7.67597 17.0087 5.42338
194 2 8.59292 18.3198 5.94126
196 2 6.65909 16.6014 6.71558
210 1 8.43703 19.4041 7.2335
33 2 1.22791 22.572 0.511268
34 2 1.2278 19.9498 4.90551
36 1 1.07202 18.8656 3.6132
40 2 1.93298 19.5425 2.32084
69 1 1.07204 23.6562 1.80351
70 2 1.74909 25.1058 1.28558
71 2 3.68281 24.202 4.90552
72 2 1.93298 22.9793 3.09587
74 1 3.52701 23.1178 3.61321
75 1 5.22098 21.2609 -0.00662386
76 2 4.20419 21.6683 4.13112
77 2 6.13791 22.572 0.511268
78 2 4.38799 23.7947 2.32085
79 2 4.2041 20.8536 1.28558
80 2 6.1378 19.9498 4.90551
83 1 5.98202 18.8656 3.6132
87 2 6.84298 19.5425 2.32084
98 1 5.98204 23.6562 1.80351
99 2 6.65909 25.1058 1.28558
100 2 8.59281 24.202 4.90552
101 2 6.84298 22.9793 3.09587
103 1 8.43701 23.1178 3.61321
104 1 10.131 21.2609 -0.00662386
105 2 9.11419 21.6683 4.13112
106 2 9.29799 23.7947 2.32085
107 2 9.1141 20.8536 1.28558
141 2 1.22791 22.572 5.94127
177 1 1.07204 23.6562 7.23351
178 2 1.74909 25.1058 6.71558
183 1 5.22098 21.2609 5.42338
185 2 6.13791 22.572 5.94127
187 2 4.2041 20.8536 6.71558
206 1 5.98204 23.6562 7.23351
207 2 6.65909 25.1058 6.71558
212 1 10.131 21.2609 5.42338
215 2 9.1141 20.8536 6.71558
110 2 1.2278 2.94109 10.3355
111 1 1.07202 1.85687 9.0432
113 2 1.74918 0.407355 9.56112
115 2 1.93298 2.53377 7.75084
126 2 1.93298 5.97059 8.52587
130 2 4.20419 4.65955 9.56112
134 2 6.1378 2.94109 10.3355
135 2 4.38799 1.7184 8.52586
136 1 5.98202 1.85687 9.0432
138 2 6.65918 0.407355 9.56112
140 2 6.84298 2.53377 7.75084
169 2 6.84298 5.97059 8.52587
173 2 9.11419 4.65955 9.56112
176 2 9.29799 1.7184 8.52586
217 2 1.22791 5.56323 11.3713
219 1 1.07202 1.85687 14.4732
220 1 2.76597 5.88661e-06 10.8534
222 2 3.68292 1.31104 11.3713
223 2 1.93298 2.53377 13.1808
226 1 1.07204 6.64751 12.6635
234 2 1.93298 5.97059 13.9559
235 1 3.52703 2.39532 12.6635
237 1 5.22098 4.25219 10.8534
239 2 6.13791 5.56323 11.3713
241 2 4.2041 3.84487 12.1456
243 2 4.38799 1.7184 13.9559
244 1 5.98202 1.85687 14.4732
245 1 7.67597 5.88664e-06 10.8534
247 2 8.59292 1.31104 11.3713
248 2 6.84298 2.53377 13.1808
269 1 5.98204 6.64751 12.6635
277 2 6.84298 5.97059 13.9559
278 1 8.43703 2.39532 12.6635
280 1 10.131 4.25219 10.8534
283 2 9.1141 3.84487 12.1456
284 2 9.29799 1.7184 13.9559
117 2 1.2278 11.4455 10.3355
119 1 1.07202 10.3612 9.0432
121 2 1.74918 8.91172 9.56112
123 2 1.93298 11.0381 7.75084
125 2 3.68281 7.19328 10.3355
128 1 3.52701 6.10906 9.04321
132 2 4.38799 6.78596 7.75085
159 2 6.1378 11.4455 10.3355
160 2 4.38799 10.2228 8.52586
162 1 5.98202 10.3612 9.0432
164 2 6.65918 8.91172 9.56112
166 2 6.84298 11.0381 7.75084
168 2 8.59281 7.19328 10.3355
171 1 8.43701 6.10906 9.04321
174 2 9.29799 6.78596 7.75085
205 2 9.29799 10.2228 8.52586
227 1 1.07202 10.3612 14.4732
228 1 2.76597 8.50438 10.8534
230 2 3.68292 9.81541 11.3713
231 2 1.93298 11.0381 13.1808
232 2 1.74909 8.09706 12.1456
236 1 3.52701 6.10906 14.4732
240 2 4.38799 6.78596 13.1808
260 1 3.52703 10.8997 12.6635
262 1 5.22098 12.7566 10.8534
266 2 4.2041 12.3492 12.1456
268 2 4.38799 10.2228 13.9559
270 1 5.98202 10.3612 14.4732
271 1 7.67597 8.50438 10.8534
273 2 8.59292 9.81541 11.3713
274 2 6.84298 11.0381 13.1808
275 2 6.65909 8.09706 12.1456
279 1 8.43701 6.10906 14.4732
282 2 9.29799 6.78596 13.1808
307 1 8.43703 10.8997 12.6635
309 1 10.131 12.7566 10.8534
312 2 9.1141 12.3492 12.1456
313 2 9.29799 10.2228 13.9559
146 2 1.74918 17.4161 9.56112
150 2 3.68281 15.6976 10.3355
151 2 1.93298 14.475 8.52587
153 1 3.52701 14.6134 9.04321
155 2 4.20419 13.1639 9.56112
157 2 4.38799 15.2903 7.75085
189 2 4.38799 18.7271 8.52586
193 2 6.65918 17.4161 9.56112
197 2 8.59281 15.6976 10.3355
198 2 6.84298 14.475 8.52587
200 1 8.43701 14.6134 9.04321
202 2 9.11419 13.1639 9.56112
203 2 9.29799 15.2903 7.75085
216 2 9.29799 18.7271 8.52586
224 2 1.22791 14.0676 11.3713
251 1 1.07204 15.1519 12.6635
253 1 2.76597 17.0087 10.8534
255 2 3.68292 18.3198 11.3713
257 2 1.74909 16.6014 12.1456
259 2 1.93298 14.475 13.9559
261 1 3.52701 14.6134 14.4732
264 2 6.13791 14.0676 11.3713
265 2 4.38799 15.2903 13.1808
289 1 3.52703 19.4041 12.6635
297 2 4.38799 18.7271 13.9559
298 1 5.98204 15.1519 12.6635
300 1 7.67597 17.0087 10.8534
302 2 8.59292 18.3198 11.3713
304 2 6.65909 16.6014 12.1456
306 2 6.84298 14.475 13.9559
308 1 8.43701 14.6134 14.4732
311 2 9.29799 15.2903 13.1808
318 1 8.43703 19.4041 12.6635
324 2 9.29799 18.7271 13.9559
142 2 1.2278 19.9498 10.3355
144 1 1.07202 18.8656 9.0432
148 2 1.93298 19.5425 7.75084
179 2 3.68281 24.202 10.3355
180 2 1.93298 22.9793 8.52587
182 1 3.52701 23.1178 9.04321
184 2 4.20419 21.6683 9.56112
186 2 4.38799 23.7947 7.75085
188 2 6.1378 19.9498 10.3355
191 1 5.98202 18.8656 9.0432
195 2 6.84298 19.5425 7.75084
208 2 8.59281 24.202 10.3355
209 2 6.84298 22.9793 8.52587
211 1 8.43701 23.1178 9.04321
213 2 9.11419 21.6683 9.56112
214 2 9.29799 23.7947 7.75085
249 2 1.22791 22.572 11.3713
252 1 1.07202 18.8656 14.4732
256 2 1.93298 19.5425 13.1808
285 1 1.07204 23.6562 12.6635
286 2 1.74909 25.1058 12.1456
288 2 1.93298 22.9793 13.9559
290 1 3.52701 23.1178 14.4732
291 1 5.22098 21.2609 10.8534
293 2 6.13791 22.572 11.3713
294 2 4.38799 23.7947 13.1808
295 2 4.2041 20.8536 12.1456
299 1 5.98202 18.8656 14.4732
303 2 6.84298 19.5425 13.1808
314 1 5.98204 23.6562 12.6635
315 2 6.65909 25.1058 12.1456
317 2 6.84298 22.9793 13.9559
319 1 8.43701 23.1178 14.4732
320 1 10.131 21.2609 10.8534
322 2 9.29799 23.7947 13.1808
323 2 9.1141 20.8536 12.1456
218 2 1.2278 2.94109 15.7655
221 2 1.74918 0.407355 14.9911
238 2 4.20419 4.65955 14.9911
242 2 6.1378 2.94109 15.7655
246 2 6.65918 0.407355 14.9911
281 2 9.11419 4.65955 14.9911
325 2 1.22791 5.56323 16.8013
326 2 1.2278 2.94109 21.1955
327 1 1.07202 1.85687 19.9032
328 1 2.76597 5.88232e-06 16.2834
329 2 1.74918 0.407355 20.4211
330 2 3.68292 1.31104 16.8013
331 2 1.93298 2.53377 18.6108
334 1 1.07204 6.64751 18.0935
342 2 1.93298 5.97059 19.3859
343 1 3.52703 2.39532 18.0935
345 1 5.22098 4.25219 16.2834
346 2 4.20419 4.65955 20.4211
347 2 6.13791 5.56323 16.8013
349 2 4.2041 3.84487 17.5756
350 2 6.1378 2.94109 21.1955
351 2 4.38799 1.7184 19.3859
352 1 5.98202 1.85687 19.9032
353 1 7.67597 5.88229e-06 16.2834
354 2 6.65918 0.407355 20.4211
355 2 8.59292 1.31104 16.8013
356 2 6.84298 2.53377 18.6108
377 1 5.98204 6.64751 18.0935
385 2 6.84298 5.97059 19.3859
386 1 8.43703 2.39532 18.0935
388 1 10.131 4.25219 16.2834
389 2 9.11419 4.65955 20.4211
391 2 9.1141 3.84487 17.5756
392 2 9.29799 1.7184 19.3859
225 2 1.2278 11.4455 15.7655
229 2 1.74918 8.91172 14.9911
233 2 3.68281 7.19328 15.7655
267 2 6.1378 11.4455 15.7655
272 2 6.65918 8.91172 14.9911
276 2 8.59281 7.19328 15.7655
333 2 1.2278 11.4455 21.1955
335 1 1.07202 10.3612 19.9032
336 1 2.76597 8.50438 16.2834
337 2 1.74918 8.91172 20.4211
338 2 3.68292 9.81541 16.8013
339 2 1.93298 11.0381 18.6108
340 2 1.74909 8.09706 17.5756
341 2 3.68281 7.19328 21.1955
344 1 3.52701 6.10906 19.9032
348 2 4.38799 6.78596 18.6108
368 1 3.52703 10.8997 18.0935
370 1 5.22098 12.7566 16.2834
374 2 4.2041 12.3492 17.5756
375 2 6.1378 11.4455 21.1955
376 2 4.38799 10.2228 19.3859
378 1 5.98202 10.3612 19.9032
379 1 7.67597 8.50438 16.2834
380 2 6.65918 8.91172 20.4211
381 2 8.59292 9.81541 16.8013
382 2 6.84298 11.0381 18.6108
383 2 6.65909 8.09706 17.5756
384 2 8.59281 7.19328 21.1955
387 1 8.43701 6.10906 19.9032
390 2 9.29799 6.78596 18.6108
415 1 8.43703 10.8997 18.0935
417 1 10.131 12.7566 16.2834
420 2 9.1141 12.3492 17.5756
421 2 9.29799 10.2228 19.3859
254 2 1.74918 17.4161 14.9911
258 2 3.68281 15.6976 15.7655
263 2 4.20419 13.1639 14.9911
301 2 6.65918 17.4161 14.9911
305 2 8.59281 15.6976 15.7655
310 2 9.11419 13.1639 14.9911
332 2 1.22791 14.0676 16.8013
359 1 1.07204 15.1519 18.0935
361 1 2.76597 17.0087 16.2834
362 2 1.74918 17.4161 20.4211
363 2 3.68292 18.3198 16.8013
365 2 1.74909 16.6014 17.5756
366 2 3.68281 15.6976 21.1955
367 2 1.93298 14.475 19.3859
369 1 3.52701 14.6134 19.9032
371 2 4.20419 13.1639 20.4211
372 2 6.13791 14.0676 16.8013
373 2 4.38799 15.2903 18.6108
397 1 3.52703 19.4041 18.0935
405 2 4.38799 18.7271 19.3859
406 1 5.98204 15.1519 18.0935
408 1 7.67597 17.0087 16.2834
409 2 6.65918 17.4161 20.4211
410 2 8.59292 18.3198 16.8013
412 2 6.65909 16.6014 17.5756
413 2 8.59281 15.6976 21.1955
414 2 6.84298 14.475 19.3859
416 1 8.43701 14.6134 19.9032
418 2 9.11419 13.1639 20.4211
419 2 9.29799 15.2903 18.6108
426 1 8.43703 19.4041 18.0935
432 2 9.29799 18.7271 19.3859
250 2 1.2278 19.9498 15.7655
287 2 3.68281 24.202 15.7655
292 2 4.20419 21.6683 14.9911
296 2 6.1378 19.9498 15.7655
316 2 8.59281 24.202 15.7655
321 2 9.11419 21.6683 14.9911
357 2 1.22791 22.572 16.8013
358 2 1.2278 19.9498 21.1955
360 1 1.07202 18.8656 19.9032
364 2 1.93298 19.5425 18.6108
393 1 1.07204 23.6562 18.0935
394 2 1.74909 25.1058 17.5756
395 2 3.68281 24.202 21.1955
396 2 1.93298 22.9793 19.3859
398 1 3.52701 23.1178 19.9032
399 1 5.22098 21.2609 16.2834
400 2 4.20419 21.6683 20.4211
401 2 6.13791 22.572 16.8013
402 2 4.38799 23.7947 18.6108
403 2 4.2041 20.8536 17.5756
404 2 6.1378 19.9498 21.1955
407 1 5.98202 18.8656 19.9032
411 2 6.84298 19.5425 18.6108
422 1 5.98204 23.6562 18.0935
423 2 6.65909 25.1058 17.5756
424 2 8.59281 24.202 21.1955
425 2 6.84298 22.9793 19.3859
427 1 8.43701 23.1178 19.9032
428 1 10.131 21.2609 16.2834
429 2 9.11419 21.6683 20.4211
430 2 9.29799 23.7947 18.6108
431 2 9.1141 20.8536 17.5756
