ITEM: TIMESTEP
0
ITEM: NUMBER OF ATOMS
432
ITEM: BOX BOUNDS xy xz yz pp pp pp
0.0000000000000000e+00 9.8200000000000003e+00 0.0000000000000000e+00
0.0000000000000000e+00 2.5513108395489539e+01 0.0000000000000000e+00
0.0000000000000000e+00 2.1719999999999999e+01 0.0000000000000000e+00
ITEM: ATOMS id type x y z fx fy fz
1 2 1.08756 5.39602 0.62445 -2.95301 -10.7939 -14.8903
2 2 1.08756 3.10835 4.75125 -4.44707 15.6733 20.9784
3 1 1.30361 2.25791 3.61638 -6.66156 -20.0581 -7.52108
4 1 2.30279 0 0 17.1766 -3.02571 5.23113
5 2 1.67431 0.612315 4.26255 -8.96206 8.97432 -16.3723
6 2 3.54256 1.14384 0.62445 -2.95278 -10.7939 -14.8903
7 2 2.14812 2.49603 2.41635 9.14893 2.14735 -12.8445
8 2 1.08756 13.9004 0.62445 -2.95301 -10.7939 -14.8903
9 2 1.08756 11.6127 4.75125 -4.44707 15.6733 20.9784
10 1 1.30361 6.24646 1.80819 -11.9933 16.4597 -3.53385
11 1 1.30361 10.7623 3.61638 -6.66156 -20.0581 -7.52108
12 1 2.30279 8.50437 0 17.1766 -3.02571 5.23113
13 2 1.67431 9.11668 4.26255 -8.96206 8.97432 -16.3723
14 2 3.54256 9.64821 0.62445 -2.95278 -10.7939 -14.8903
15 2 2.14812 11.0004 2.41635 9.14893 2.14735 -12.8445
16 2 1.67431 7.89205 1.22175 -5.15885 -5.437 10.181
17 2 3.54257 7.36053 4.75125 -4.44683 15.6733 20.9784
18 2 2.14812 6.00834 2.95935 13.8503 -3.9399 18.7715
19 1 3.7586 1.99427 1.80819 -11.9937 16.4596 -3.53385
20 1 3.75861 6.51009 3.61638 -6.66199 -20.058 -7.52107
21 1 4.75779 4.25218 0 17.1767 -3.02571 5.23113
22 2 4.12931 4.8645 4.26255 -8.96189 8.97432 -16.3723
23 2 5.99756 5.39602 0.62445 -2.95301 -10.7939 -14.8903
24 2 4.60312 6.74822 2.41635 9.14897 2.14734 -12.8445
25 2 4.12931 3.63987 1.22175 -5.15868 -5.43701 10.181
26 2 5.99756 3.10835 4.75125 -4.44707 15.6733 20.9784
27 2 4.60312 1.75615 2.95935 13.8503 -3.9399 18.7715
28 1 6.21361 2.25791 3.61638 -6.66156 -20.0581 -7.52108
29 1 7.21279 0 0 17.1766 -3.02571 5.23113
30 2 6.58431 0.612315 4.26255 -8.96206 8.97432 -16.3723
31 2 8.45256 1.14384 0.62445 -2.95278 -10.7939 -14.8903
32 2 7.05812 2.49603 2.41635 9.14893 2.14735 -12.8445
33 2 1.08756 22.4048 0.62445 -2.95301 -10.7939 -14.8903
34 2 1.08756 20.1171 4.75125 -4.44707 15.6733 20.9784
35 1 1.30361 14.7508 1.80819 -11.9933 16.4597 -3.53385
36 1 1.30361 19.2666 3.61638 -6.66156 -20.0581 -7.52108
37 1 2.30279 17.0087 0 17.1766 -3.02571 5.23113
38 2 1.67431 17.6211 4.26255 -8.96206 8.97432 -16.3723
39 2 3.54256 18.1526 0.62445 -2.95278 -10.7939 -14.8903
40 2 2.14812 19.5048 2.41635 9.14893 2.14735 -12.8445
41 2 1.67431 16.3964 1.22175 -5.15885 -5.437 10.181
42 2 3.54256 15.8649 4.75125 -4.44683 15.6733 20.9784
43 2 2.14813 14.5127 2.95935 13.8503 -3.9399 18.7715
44 1 3.7586 10.4986 1.80819 -11.9937 16.4596 -3.53385
45 1 3.7586 15.0145 3.61638 -6.66199 -20.058 -7.52107
46 1 4.75779 12.7566 0 17.1767 -3.02571 5.23113
47 2 4.12931 13.3689 4.26255 -8.96189 8.97432 -16.3723
48 2 5.99756 13.9004 0.62445 -2.95301 -10.7939 -14.8903
49 2 4.60313 15.2526 2.41635 9.14897 2.14734 -12.8445
50 2 4.12931 12.1442 1.22175 -5.15868 -5.43701 10.181
51 2 5.99756 11.6127 4.75125 -4.44707 15.6733 20.9784
52 2 4.60313 10.2605 2.95935 13.8503 -3.9399 18.7715
53 1 6.21361 6.24646 1.80819 -11.9933 16.4597 -3.53385
54 1 6.21361 10.7623 3.61638 -6.66156 -20.0581 -7.52108
55 1 7.21279 8.50437 0 17.1766 -3.02571 5.23113
56 2 6.58431 9.11668 4.26255 -8.96206 8.97432 -16.3723
57 2 8.45256 9.64821 0.62445 -2.95278 -10.7939 -14.8903
58 2 7.05812 11.0004 2.41635 9.14893 2.14735 -12.8445
59 2 6.58431 7.89205 1.22175 -5.15885 -5.437 10.181
60 2 8.45256 7.36053 4.75125 -4.44683 15.6733 20.9784
61 2 7.05813 6.00834 2.95935 13.8503 -3.9399 18.7715
62 1 8.66861 1.99427 1.80819 -11.9937 16.4596 -3.53385
63 1 8.6686 6.51009 3.61638 -6.66199 -20.058 -7.52107
64 1 9.66779 4.25218 0 17.1767 -3.02571 5.23113
65 2 9.03931 4.8645 4.26255 -8.96189 8.97432 -16.3723
66 2 9.51312 6.74822 2.41635 9.14897 2.14734 -12.8445
67 2 9.03931 3.63987 1.22175 -5.15868 -5.43701 10.181
68 2 9.51313 1.75615 2.95935 13.8503 -3.9399 18.7715
69 1 1.30361 23.2552 1.80819 -11.9933 16.4597 -3.53385
70 2 1.67431 24.9008 1.22175 -5.15885 -5.437 10.181
71 2 3.54256 24.3693 4.75125 -4.44683 15.6733 20.9784
72 2 2.14813 23.0171 2.95935 13.8503 -3.9399 18.7715
73 1 3.75861 19.003 1.80819 -11.9937 16.4596 -3.53385
74 1 3.75861 23.5188 3.61638 -6.66199 -20.058 -7.52107
75 1 4.75779 21.2609 0 17.1767 -3.02571 5.23113
76 2 4.12931 21.8732 4.26255 -8.96189 8.97432 -16.3723
77 2 5.99757 22.4048 0.62445 -2.95301 -10.7939 -14.8903
78 2 4.60312 23.757 2.41635 9.14897 2.14734 -12.8445
79 2 4.12931 20.6486 1.22175 -5.15868 -5.43701 10.181
80 2 5.99756 20.1171 4.75125 -4.44707 15.6733 20.9784
81 2 4.60313 18.7649 2.95935 13.8503 -3.9399 18.7715
82 1 6.21361 14.7508 1.80819 -11.9933 16.4597 -3.53385
83 1 6.21361 19.2666 3.61638 -6.66156 -20.0581 -7.52108
84 1 7.21279 17.0087 0 17.1766 -3.02571 5.23113
85 2 6.58431 17.6211 4.26255 -8.96206 8.97432 -16.3723
86 2 8.45256 18.1526 0.62445 -2.95278 -10.7939 -14.8903
87 2 7.05812 19.5048 2.41635 9.14893 2.14735 -12.8445
88 2 6.58431 16.3964 1.22175 -5.15885 -5.437 10.181
89 2 8.45256 15.8649 4.75125 -4.44683 15.6733 20.9784
90 2 7.05813 14.5127 2.95935 13.8503 -3.9399 18.7715
91 1 8.6686 10.4986 1.80819 -11.9937 16.4596 -3.53385
92 1 8.66861 15.0145 3.61638 -6.66199 -20.058 -7.52107
93 1 9.66779 12.7566 0 17.1767 -3.02571 5.23113
94 2 9.03931 13.3689 4.26255 -8.96189 8.97432 -16.3723
95 2 9.51312 15.2526 2.41635 9.14897 2.14734 -12.8445
96 2 9.03931 12.1442 1.22175 -5.15868 -5.43701 10.181
97 2 9.51313 10.2605 2.95935 13.8503 -3.9399 18.7715
98 1 6.21361 23.2552 1.80819 -11.9933 16.4597 -3.53385
99 2 6.58431 24.9008 1.22175 -5.15885 -5.437 10.181
100 2 8.45256 24.3693 4.75125 -4.44683 15.6733 20.9784
101 2 7.05812 23.0171 2.95935 13.8503 -3.9399 18.7715
102 1 8.6686 19.003 1.80819 -11.9937 16.4596 -3.53385
103 1 8.6686 23.5188 3.61638 -6.66199 -20.058 -7.52107
104 1 9.66779 21.2609 0 17.1767 -3.02571 5.23113
105 2 9.03931 21.8732 4.26255 -8.96189 8.97432 -16.3723
106 2 9.51312 23.757 2.41635 9.14897 2.14734 -12.8445
107 2 9.03931 20.6486 1.22175 -5.15868 -5.43701 10.181
108 2 9.51313 18.7649 2.95935 13.8503 -3.9399 18.7715
109 2 1.08756 5.39602 6.05445 -2.95301 -10.7939 -14.8903
110 2 1.08756 3.10835 10.1812 -4.44707 15.6733 20.9784
111 1 1.30361 2.25791 9.04638 -6.66156 -20.0581 -7.52108
112 1 2.30279 0 5.43 17.1766 -3.02571 5.23113
113 2 1.67431 0.612315 9.69255 -8.96206 8.97432 -16.3723
114 2 3.54256 1.14384 6.05445 -2.95278 -10.7939 -14.8903
115 2 2.14812 2.49603 7.84635 9.14893 2.14735 -12.8445
116 2 1.08756 13.9004 6.05445 -2.95301 -10.7939 -14.8903
117 2 1.08756 11.6127 10.1812 -4.44707 15.6733 20.9784
118 1 1.30361 6.24646 7.23819 -11.9933 16.4597 -3.53385
119 1 1.30361 10.7623 9.04638 -6.66156 -20.0581 -7.52108
120 1 2.30279 8.50437 5.43 17.1766 -3.02571 5.23113
121 2 1.67431 9.11668 9.69255 -8.96206 8.97432 -16.3723
122 2 3.54256 9.64821 6.05445 -2.95278 -10.7939 -14.8903
123 2 2.14812 11.0004 7.84635 9.14893 2.14735 -12.8445
124 2 1.67431 7.89205 6.65175 -5.15885 -5.437 10.181
125 2 3.54257 7.36053 10.1812 -4.44683 15.6733 20.9784
126 2 2.14812 6.00834 8.38935 13.8503 -3.9399 18.7715
127 1 3.7586 1.99427 7.23819 -11.9937 16.4596 -3.53385
128 1 3.75861 6.51009 9.04638 -6.66199 -20.058 -7.52107
129 1 4.75779 4.25218 5.43 17.1767 -3.02571 5.23113
130 2 4.12931 4.8645 9.69255 -8.96189 8.97432 -16.3723
131 2 5.99756 5.39602 6.05445 -2.95301 -10.7939 -14.8903
132 2 4.60312 6.74822 7.84635 9.14897 2.14734 -12.8445
133 2 4.12931 3.63987 6.65175 -5.15868 -5.43701 10.181
134 2 5.99756 3.10835 10.1812 -4.44707 15.6733 20.9784
135 2 4.60312 1.75615 8.38935 13.8503 -3.9399 18.7715
136 1 6.21361 2.25791 9.04638 -6.66156 -20.0581 -7.52108
137 1 7.21279 0 5.43 17.1766 -3.02571 5.23113
138 2 6.58431 0.612315 9.69255 -8.96206 8.97432 -16.3723
139 2 8.45256 1.14384 6.05445 -2.95278 -10.7939 -14.8903
140 2 7.05812 2.49603 7.84635 9.14893 2.14735 -12.8445
141 2 1.08756 22.4048 6.05445 -2.95301 -10.7939 -14.8903
142 2 1.08756 20.1171 10.1812 -4.44707 15.6733 20.9784
143 1 1.30361 14.7508 7.23819 -11.9933 16.4597 -3.53385
144 1 1.30361 19.2666 9.04638 -6.66156 -20.0581 -7.52108
145 1 2.30279 17.0087 5.43 17.1766 -3.02571 5.23113
146 2 1.67431 17.6211 9.69255 -8.96206 8.97432 -16.3723
147 2 3.54256 18.1526 6.05445 -2.95278 -10.7939 -14.8903
148 2 2.14812 19.5048 7.84635 9.14893 2.14735 -12.8445
149 2 1.67431 16.3964 6.65175 -5.15885 -5.437 10.181
150 2 3.54256 15.8649 10.1812 -4.44683 15.6733 20.9784
151 2 2.14813 14.5127 8.38935 13.8503 -3.9399 18.7715
152 1 3.7586 10.4986 7.23819 -11.9937 16.4596 -3.53385
153 1 3.7586 15.0145 9.04638 -6.66199 -20.058 -7.52107
154 1 4.75779 12.7566 5.43 17.1767 -3.02571 5.23113
155 2 4.12931 13.3689 9.69255 -8.96189 8.97432 -16.3723
156 2 5.99756 13.9004 6.05445 -2.95301 -10.7939 -14.8903
157 2 4.60313 15.2526 7.84635 9.14897 2.14734 -12.8445
158 2 4.12931 12.1442 6.65175 -5.15868 -5.43701 10.181
159 2 5.99756 11.6127 10.1812 -4.44707 15.6733 20.9784
160 2 4.60313 10.2605 8.38935 13.8503 -3.9399 18.7715
161 1 6.21361 6.24646 7.23819 -11.9933 16.4597 -3.53385
162 1 6.21361 10.7623 9.04638 -6.66156 -20.0581 -7.52108
163 1 7.21279 8.50437 5.43 17.1766 -3.02571 5.23113
164 2 6.58431 9.11668 9.69255 -8.96206 8.97432 -16.3723
165 2 8.45256 9.64821 6.05445 -2.95278 -10.7939 -14.8903
166 2 7.05812 11.0004 7.84635 9.14893 2.14735 -12.8445
167 2 6.58431 7.89205 6.65175 -5.15885 -5.437 10.181
168 2 8.45256 7.36053 10.1812 -4.44683 15.6733 20.9784
169 2 7.05813 6.00834 8.38935 13.8503 -3.9399 18.7715
170 1 8.66861 1.99427 7.23819 -11.9937 16.4596 -3.53385
171 1 8.6686 6.51009 9.04638 -6.66199 -20.058 -7.52107
172 1 9.66779 4.25218 5.43 17.1767 -3.02571 5.23113
173 2 9.03931 4.8645 9.69255 -8.96189 8.97432 -16.3723
174 2 9.51312 6.74822 7.84635 9.14897 2.14734 -12.8445
175 2 9.03931 3.63987 6.65175 -5.15868 -5.43701 10.181
176 2 9.51313 1.75615 8.38935 13.8503 -3.9399 18.7715
177 1 1.30361 23.2552 7.23819 -11.9933 16.4597 -3.53385
178 2 1.67431 24.9008 6.65175 -5.15885 -5.437 10.181
179 2 3.54256 24.3693 10.1812 -4.44683 15.6733 20.9784
180 2 2.14813 23.0171 8.38935 13.8503 -3.9399 18.7715
181 1 3.75861 19.003 7.23819 -11.9937 16.4596 -3.53385
182 1 3.75861 23.5188 9.04638 -6.66199 -20.058 -7.52107
183 1 4.75779 21.2609 5.43 17.1767 -3.02571 5.23113
184 2 4.12931 21.8732 9.69255 -8.96189 8.97432 -16.3723
185 2 5.99757 22.4048 6.05445 -2.95301 -10.7939 -14.8903
186 2 4.60312 23.757 7.84635 9.14897 2.14734 -12.8445
187 2 4.12931 20.6486 6.65175 -5.15868 -5.43701 10.181
188 2 5.99756 20.1171 10.1812 -4.44707 15.6733 20.9784
189 2 4.60313 18.7649 8.38935 13.8503 -3.9399 18.7715
190 1 6.21361 14.7508 7.23819 -11.9933 16.4597 -3.53385
191 1 6.21361 19.2666 9.04638 -6.66156 -20.0581 -7.52108
192 1 7.21279 17.0087 5.43 17.1766 -3.02571 5.23113
193 2 6.58431 17.6211 9.69255 -8.96206 8.97432 -16.3723
194 2 8.45256 18.1526 6.05445 -2.95278 -10.7939 -14.8903
195 2 7.05812 19.5048 7.84635 9.14893 2.14735 -12.8445
196 2 6.58431 16.3964 6.65175 -5.15885 -5.437 10.181
197 2 8.45256 15.8649 10.1812 -4.44683 15.6733 20.9784
198 2 7.05813 14.5127 8.38935 13.8503 -3.9399 18.7715
199 1 8.6686 10.4986 7.23819 -11.9937 16.4596 -3.53385
200 1 8.66861 15.0145 9.04638 -6.66199 -20.058 -7.52107
201 1 9.66779 12.7566 5.43 17.1767 -3.02571 5.23113
202 2 9.03931 13.3689 9.69255 -8.96189 8.97432 -16.3723
203 2 9.51312 15.2526 7.84635 9.14897 2.14734 -12.8445
204 2 9.03931 12.1442 6.65175 -5.15868 -5.43701 10.181
205 2 9.51313 10.2605 8.38935 13.8503 -3.9399 18.7715
206 1 6.21361 23.2552 7.23819 -11.9933 16.4597 -3.53385
207 2 6.58431 24.9008 6.65175 -5.15885 -5.437 10.181
208 2 8.45256 24.3693 10.1812 -4.44683 15.6733 20.9784
209 2 7.05812 23.0171 8.38935 13.8503 -3.9399 18.7715
210 1 8.6686 19.003 7.23819 -11.9937 16.4596 -3.53385
211 1 8.6686 23.5188 9.04638 -6.66199 -20.058 -7.52107
212 1 9.66779 21.2609 5.43 17.1767 -3.02571 5.23113
213 2 9.03931 21.8732 9.69255 -8.96189 8.97432 -16.3723
214 2 9.51312 23.757 7.84635 9.14897 2.14734 -12.8445
215 2 9.03931 20.6486 6.65175 -5.15868 -5.43701 10.181
216 2 9.51313 18.7649 8.38935 13.8503 -3.9399 18.7715
217 2 1.08756 5.39602 11.4845 -2.95301 -10.7939 -14.8903
218 2 1.08756 3.10835 15.6112 -4.44707 15.6733 20.9784
219 1 1.30361 2.25791 14.4764 -6.66156 -20.0581 -7.52108
220 1 2.30279 0 10.86 17.1766 -3.02571 5.23113
221 2 1.67431 0.612315 15.1226 -8.96206 8.97432 -16.3723
222 2 3.54256 1.14384 11.4845 -2.95278 -10.7939 -14.8903
223 2 2.14812 2.49603 13.2763 9.14893 2.14735 -12.8445
224 2 1.08756 13.9004 11.4845 -2.95301 -10.7939 -14.8903
225 2 1.08756 11.6127 15.6112 -4.44707 15.6733 20.9784
226 1 1.30361 6.24646 12.6682 -11.9933 16.4597 -3.53385
227 1 1.30361 10.7623 14.4764 -6.66156 -20.0581 -7.52108
228 1 2.30279 8.50437 10.86 17.1766 -3.02571 5.23113
229 2 1.67431 9.11668 15.1226 -8.96206 8.97432 -16.3723
230 2 3.54256 9.64821 11.4845 -2.95278 -10.7939 -14.8903
231 2 2.14812 11.0004 13.2763 9.14893 2.14735 -12.8445
232 2 1.67431 7.89205 12.0817 -5.15885 -5.437 10.181
233 2 3.54257 7.36053 15.6112 -4.44683 15.6733 20.9784
234 2 2.14812 6.00834 13.8193 13.8503 -3.9399 18.7715
235 1 3.7586 1.99427 12.6682 -11.9937 16.4596 -3.53385
236 1 3.75861 6.51009 14.4764 -6.66199 -20.058 -7.52107
237 1 4.75779 4.25218 10.86 17.1767 -3.02571 5.23113
238 2 4.12931 4.8645 15.1226 -8.96189 8.97432 -16.3723
239 2 5.99756 5.39602 11.4845 -2.95301 -10.7939 -14.8903
240 2 4.60312 6.74822 13.2763 9.14897 2.14734 -12.8445
241 2 4.12931 3.63987 12.0817 -5.15868 -5.43701 10.181
242 2 5.99756 3.10835 15.6112 -4.44707 15.6733 20.9784
243 2 4.60312 1.75615 13.8193 13.8503 -3.9399 18.7715
244 1 6.21361 2.25791 14.4764 -6.66156 -20.0581 -7.52108
245 1 7.21279 0 10.86 17.1766 -3.02571 5.23113
246 2 6.58431 0.612315 15.1226 -8.96206 8.97432 -16.3723
247 2 8.45256 1.14384 11.4845 -2.95278 -10.7939 -14.8903
248 2 7.05812 2.49603 13.2763 9.14893 2.14735 -12.8445
249 2 1.08756 22.4048 11.4845 -2.95301 -10.7939 -14.8903
250 2 1.08756 20.1171 15.6112 -4.44707 15.6733 20.9784
251 1 1.30361 14.7508 12.6682 -11.9933 16.4597 -3.53385
252 1 1.30361 19.2666 14.4764 -6.66156 -20.0581 -7.52108
253 1 2.30279 17.0087 10.86 17.1766 -3.02571 5.23113
254 2 1.67431 17.6211 15.1226 -8.96206 8.97432 -16.3723
255 2 3.54256 18.1526 11.4845 -2.95278 -10.7939 -14.8903
256 2 2.14812 19.5048 13.2763 9.14893 2.14735 -12.8445
257 2 1.67431 16.3964 12.0817 -5.15885 -5.437 10.181
258 2 3.54256 15.8649 15.6112 -4.44683 15.6733 20.9784
259 2 2.14813 14.5127 13.8193 13.8503 -3.9399 18.7715
260 1 3.7586 10.4986 12.6682 -11.9937 16.4596 -3.53385
261 1 3.7586 15.0145 14.4764 -6.66199 -20.058 -7.52107
262 1 4.75779 12.7566 10.86 17.1767 -3.02571 5.23113
263 2 4.12931 13.3689 15.1226 -8.96189 8.97432 -16.3723
264 2 5.99756 13.9004 11.4845 -2.95301 -10.7939 -14.8903
265 2 4.60313 15.2526 13.2763 9.14897 2.14734 -12.8445
266 2 4.12931 12.1442 12.0817 -5.15868 -5.43701 10.181
267 2 5.99756 11.6127 15.6112 -4.44707 15.6733 20.9784
268 2 4.60313 10.2605 13.8193 13.8503 -3.9399 18.7715
269 1 6.21361 6.24646 12.6682 -11.9933 16.4597 -3.53385
270 1 6.21361 10.7623 14.4764 -6.66156 -20.0581 -7.52108
271 1 7.21279 8.50437 10.86 17.1766 -3.02571 5.23113
272 2 6.58431 9.11668 15.1226 -8.96206 8.97432 -16.3723
273 2 8.45256 9.64821 11.4845 -2.95278 -10.7939 -14.8903
274 2 7.05812 11.0004 13.2763 9.14893 2.14735 -12.8445
275 2 6.58431 7.89205 12.0817 -5.15885 -5.437 10.181
276 2 8.45256 7.36053 15.6112 -4.44683 15.6733 20.9784
277 2 7.05813 6.00834 13.8193 13.8503 -3.9399 18.7715
278 1 8.66861 1.99427 12.6682 -11.9937 16.4596 -3.53385
279 1 8.6686 6.51009 14.4764 -6.66199 -20.058 -7.52107
280 1 9.66779 4.25218 10.86 17.1767 -3.02571 5.23113
281 2 9.03931 4.8645 15.1226 -8.96189 8.97432 -16.3723
282 2 9.51312 6.74822 13.2763 9.14897 2.14734 -12.8445
283 2 9.03931 3.63987 12.0817 -5.15868 -5.43701 10.181
284 2 9.51313 1.75615 13.8193 13.8503 -3.9399 18.7715
285 1 1.30361 23.2552 12.6682 -11.9933 16.4597 -3.53385
286 2 1.67431 24.9008 12.0817 -5.15885 -5.437 10.181
287 2 3.54256 24.3693 15.6112 -4.44683 15.6733 20.9784
288 2 2.14813 23.0171 13.8193 13.8503 -3.9399 18.7715
289 1 3.75861 19.003 12.6682 -11.9937 16.4596 -3.53385
290 1 3.75861 23.5188 14.4764 -6.66199 -20.058 -7.52107
291 1 4.75779 21.2609 10.86 17.1767 -3.02571 5.23113
292 2 4.12931 21.8732 15.1226 -8.96189 8.97432 -16.3723
293 2 5.99757 22.4048 11.4845 -2.95301 -10.7939 -14.8903
294 2 4.60312 23.757 13.2763 9.14897 2.14734 -12.8445
295 2 4.12931 20.6486 12.0817 -5.15868 -5.43701 10.181
296 2 5.99756 20.1171 15.6112 -4.44707 15.6733 20.9784
297 2 4.60313 18.7649 13.8193 13.8503 -3.9399 18.7715
298 1 6.21361 14.7508 12.6682 -11.9933 16.4597 -3.53385
299 1 6.21361 19.2666 14.4764 -6.66156 -20.0581 -7.52108
300 1 7.21279 17.0087 10.86 17.1766 -3.02571 5.23113
301 2 6.58431 17.6211 15.1226 -8.96206 8.97432 -16.3723
302 2 8.45256 18.1526 11.4845 -2.95278 -10.7939 -14.8903
303 2 7.05812 19.5048 13.2763 9.14893 2.14735 -12.8445
304 2 6.58431 16.3964 12.0817 -5.15885 -5.437 10.181
305 2 8.45256 15.8649 15.6112 -4.44683 15.6733 20.9784
306 2 7.05813 14.5127 13.8193 13.8503 -3.9399 18.7715
307 1 8.6686 10.4986 12.6682 -11.9937 16.4596 -3.53385
308 1 8.66861 15.0145 14.4764 -6.66199 -20.058 -7.52107
309 1 9.66779 12.7566 10.86 17.1767 -3.02571 5.23113
310 2 9.03931 13.3689 15.1226 -8.96189 8.97432 -16.3723
311 2 9.51312 15.2526 13.2763 9.14897 2.14734 -12.8445
312 2 9.03931 12.1442 12.0817 -5.15868 -5.43701 10.181
313 2 9.51313 10.2605 13.8193 13.8503 -3.9399 18.7715
314 1 6.21361 23.2552 12.6682 -11.9933 16.4597 -3.53385
315 2 6.58431 24.9008 12.0817 -5.15885 -5.437 10.181
316 2 8.45256 24.3693 15.6112 -4.44683 15.6733 20.9784
317 2 7.05812 23.0171 13.8193 13.8503 -3.9399 18.7715
318 1 8.6686 19.003 12.6682 -11.9937 16.4596 -3.53385
319 1 8.6686 23.5188 14.4764 -6.66199 -20.058 -7.52107
320 1 9.66779 21.2609 10.86 17.1767 -3.02571 5.23113
321 2 9.03931 21.8732 15.1226 -8.96189 8.97432 -16.3723
322 2 9.51312 23.757 13.2763 9.14897 2.14734 -12.8445
323 2 9.03931 20.6486 12.0817 -5.15868 -5.43701 10.181
324 2 9.51313 18.7649 13.8193 13.8503 -3.9399 18.7715
325 2 1.08756 5.39602 16.9144 -2.95301 -10.7939 -14.8903
326 2 1.08756 3.10835 21.0412 -4.44707 15.6733 20.9784
327 1 1.30361 2.25791 19.9064 -6.66156 -20.0581 -7.52108
328 1 2.30279 0 16.29 17.1766 -3.02571 5.23113
329 2 1.67431 0.612315 20.5526 -8.96206 8.97432 -16.3723
330 2 3.54256 1.14384 16.9144 -2.95278 -10.7939 -14.8903
331 2 2.14812 2.49603 18.7063 9.14893 2.14735 -12.8445
332 2 1.08756 13.9004 16.9144 -2.95301 -10.7939 -14.8903
333 2 1.08756 11.6127 21.0412 -4.44707 15.6733 20.9784
334 1 1.30361 6.24646 18.0982 -11.9933 16.4597 -3.53385
335 1 1.30361 10.7623 19.9064 -6.66156 -20.0581 -7.52108
336 1 2.30279 8.50437 16.29 17.1766 -3.02571 5.23113
337 2 1.67431 9.11668 20.5526 -8.96206 8.97432 -16.3723
338 2 3.54256 9.64821 16.9144 -2.95278 -10.7939 -14.8903
339 2 2.14812 11.0004 18.7063 9.14893 2.14735 -12.8445
340 2 1.67431 7.89205 17.5117 -5.15885 -5.437 10.181
341 2 3.54257 7.36053 21.0412 -4.44683 15.6733 20.9784
342 2 2.14812 6.00834 19.2493 13.8503 -3.9399 18.7715
343 1 3.7586 1.99427 18.0982 -11.9937 16.4596 -3.53385
344 1 3.75861 6.51009 19.9064 -6.66199 -20.058 -7.52107
345 1 4.75779 4.25218 16.29 17.1767 -3.02571 5.23113
346 2 4.12931 4.8645 20.5526 -8.96189 8.97432 -16.3723
347 2 5.99756 5.39602 16.9144 -2.95301 -10.7939 -14.8903
348 2 4.60312 6.74822 18.7063 9.14897 2.14734 -12.8445
349 2 4.12931 3.63987 17.5117 -5.15868 -5.43701 10.181
350 2 5.99756 3.10835 21.0412 -4.44707 15.6733 20.9784
351 2 4.60312 1.75615 19.2493 13.8503 -3.9399 18.7715
352 1 6.21361 2.25791 19.9064 -6.66156 -20.0581 -7.52108
353 1 7.21279 0 16.29 17.1766 -3.02571 5.23113
354 2 6.58431 0.612315 20.5526 -8.96206 8.97432 -16.3723
355 2 8.45256 1.14384 16.9144 -2.95278 -10.7939 -14.8903
356 2 7.05812 2.49603 18.7063 9.14893 2.14735 -12.8445
357 2 1.08756 22.4048 16.9144 -2.95301 -10.7939 -14.8903
358 2 1.08756 20.1171 21.0412 -4.44707 15.6733 20.9784
359 1 1.30361 14.7508 18.0982 -11.9933 16.4597 -3.53385
360 1 1.30361 19.2666 19.9064 -6.66156 -20.0581 -7.52108
361 1 2.30279 17.0087 16.29 17.1766 -3.02571 5.23113
362 2 1.67431 17.6211 20.5526 -8.96206 8.97432 -16.3723
363 2 3.54256 18.1526 16.9144 -2.95278 -10.7939 -14.8903
364 2 2.14812 19.5048 18.7063 9.14893 2.14735 -12.8445
365 2 1.67431 16.3964 17.5117 -5.15885 -5.437 10.181
366 2 3.54256 15.8649 21.0412 -4.44683 15.6733 20.9784
367 2 2.14813 14.5127 19.2493 13.8503 -3.9399 18.7715
368 1 3.7586 10.4986 18.0982 -11.9937 16.4596 -3.53385
369 1 3.7586 15.0145 19.9064 -6.66199 -20.058 -7.52107
370 1 4.75779 12.7566 16.29 17.1767 -3.02571 5.23113
371 2 4.12931 13.3689 20.5526 -8.96189 8.97432 -16.3723
372 2 5.99756 13.9004 16.9144 -2.95301 -10.7939 -14.8903
373 2 4.60313 15.2526 18.7063 9.14897 2.14734 -12.8445
374 2 4.12931 12.1442 17.5117 -5.15868 -5.43701 10.181
375 2 5.99756 11.6127 21.0412 -4.44707 15.6733 20.9784
376 2 4.60313 10.2605 19.2493 13.8503 -3.9399 18.7715
377 1 6.21361 6.24646 18.0982 -11.9933 16.4597 -3.53385
378 1 6.21361 10.7623 19.9064 -6.66156 -20.0581 -7.52108
379 1 7.21279 8.50437 16.29 17.1766 -3.02571 5.23113
380 2 6.58431 9.11668 20.5526 -8.96206 8.97432 -16.3723
381 2 8.45256 9.64821 16.9144 -2.95278 -10.7939 -14.8903
382 2 7.05812 11.0004 18.7063 9.14893 2.14735 -12.8445
383 2 6.58431 7.89205 17.5117 -5.15885 -5.437 10.181
384 2 8.45256 7.36053 21.0412 -4.44683 15.6733 20.9784
385 2 7.05813 6.00834 19.2493 13.8503 -3.9399 18.7715
386 1 8.66861 1.99427 18.0982 -11.9937 16.4596 -3.53385
387 1 8.6686 6.51009 19.9064 -6.66199 -20.058 -7.52107
388 1 9.66779 4.25218 16.29 17.1767 -3.02571 5.23113
389 2 9.03931 4.8645 20.5526 -8.96189 8.97432 -16.3723
390 2 9.51312 6.74822 18.7063 9.14897 2.14734 -12.8445
391 2 9.03931 3.63987 17.5117 -5.15868 -5.43701 10.181
392 2 9.51313 1.75615 19.2493 13.8503 -3.9399 18.7715
393 1 1.30361 23.2552 18.0982 -11.9933 16.4597 -3.53385
394 2 1.67431 24.9008 17.5117 -5.15885 -5.437 10.181
395 2 3.54256 24.3693 21.0412 -4.44683 15.6733 20.9784
396 2 2.14813 23.0171 19.2493 13.8503 -3.9399 18.7715
397 1 3.75861 19.003 18.0982 -11.9937 16.4596 -3.53385
398 1 3.75861 23.5188 19.9064 -6.66199 -20.058 -7.52107
399 1 4.75779 21.2609 16.29 17.1767 -3.02571 5.23113
400 2 4.12931 21.8732 20.5526 -8.96189 8.97432 -16.3723
401 2 5.99757 22.4048 16.9144 -2.95301 -10.7939 -14.8903
402 2 4.60312 23.757 18.7063 9.14897 2.14734 -12.8445
403 2 4.12931 20.6486 17.5117 -5.15868 -5.43701 10.181
404 2 5.99756 20.1171 21.0412 -4.44707 15.6733 20.9784
405 2 4.60313 18.7649 19.2493 13.8503 -3.9399 18.7715
406 1 6.21361 14.7508 18.0982 -11.9933 16.4597 -3.53385
407 1 6.21361 19.2666 19.9064 -6.66156 -20.0581 -7.52108
408 1 7.21279 17.0087 16.29 17.1766 -3.02571 5.23113
409 2 6.58431 17.6211 20.5526 -8.96206 8.97432 -16.3723
410 2 8.45256 18.1526 16.9144 -2.95278 -10.7939 -14.8903
411 2 7.05812 19.5048 18.7063 9.14893 2.14735 -12.8445
412 2 6.58431 16.3964 17.5117 -5.15885 -5.437 10.181
413 2 8.45256 15.8649 21.0412 -4.44683 15.6733 20.9784
414 2 7.05813 14.5127 19.2493 13.8503 -3.9399 18.7715
415 1 8.6686 10.4986 18.0982 -11.9937 16.4596 -3.53385
416 1 8.66861 15.0145 19.9064 -6.66199 -20.058 -7.52107
417 1 9.66779 12.7566 16.29 17.1767 -3.02571 5.23113
418 2 9.03931 13.3689 20.5526 -8.96189 8.97432 -16.3723
419 2 9.51312 15.2526 18.7063 9.14897 2.14734 -12.8445
420 2 9.03931 12.1442 17.5117 -5.15868 -5.43701 10.181
421 2 9.51313 10.2605 19.2493 13.8503 -3.9399 18.7715
422 1 6.21361 23.2552 18.0982 -11.9933 16.4597 -3.53385
423 2 6.58431 24.9008 17.5117 -5.15885 -5.437 10.181
424 2 8.45256 24.3693 21.0412 -4.44683 15.6733 20.9784
425 2 7.05812 23.0171 19.2493 13.8503 -3.9399 18.7715
426 1 8.6686 19.003 18.0982 -11.9937 16.4596 -3.53385
427 1 8.6686 23.5188 19.9064 -6.66199 -20.058 -7.52107
428 1 9.66779 21.2609 16.29 17.1767 -3.02571 5.23113
429 2 9.03931 21.8732 20.5526 -8.96189 8.97432 -16.3723
430 2 9.51312 23.757 18.7063 9.14897 2.14734 -12.8445
431 2 9.03931 20.6486 17.5117 -5.15868 -5.43701 10.181
432 2 9.51313 18.7649 19.2493 13.8503 -3.9399 18.7715
ITEM: TIMESTEP
10
ITEM: NUMBER OF ATOMS
432
ITEM: BOX BOUNDS xy xz yz pp pp pp
0.0000000000000000e+00 9.8200000000000003e+00 0.0000000000000000e+00
0.0000000000000000e+00 2.5513108395489539e+01 0.0000000000000000e+00
0.0000000000000000e+00 2.1719999999999999e+01 0.0000000000000000e+00
ITEM: ATOMS id type x y z fx fy fz
1 2 1.23464 5.57302 0.504205 -0.0582937 -0.0995327 -0.0452564
2 2 1.22728 2.95047 4.89797 0.00634172 -0.178054 -0.188799
3 1 1.06672 1.85273 3.60719 0.0270366 0.140968 0.173452
4 1 2.76914 0.00508804 -0.000704176 -0.0288604 0.043979 -0.0489142
5 2 1.73737 0.407607 4.14502 0.0328961 0.0101189 0.0257324
6 2 3.68965 1.32083 0.504204 -0.0583135 -0.0995438 -0.0452865
7 2 1.93094 2.52352 2.31223 -0.0331892 0.0041848 0.0501466
8 2 1.23464 14.0774 0.504205 -0.0582937 -0.0995327 -0.0452564
9 2 1.22728 11.4548 4.89797 0.00634172 -0.178054 -0.188799
10 1 1.07249 6.64783 1.80099 0.0416679 0.0383798 0.05632
11 1 1.06672 10.3571 3.60719 0.0270366 0.140968 0.173452
12 1 2.76914 8.50946 -0.000704176 -0.0288604 0.043979 -0.0489142
13 2 1.73737 8.91198 4.14502 0.0328961 0.0101189 0.0257324
14 2 3.68965 9.8252 0.504204 -0.0583135 -0.0995438 -0.0452865
15 2 1.93094 11.0279 2.31223 -0.0331892 0.0041848 0.0501466
16 2 1.76447 8.09787 1.30061 -0.0329019 -0.00654075 -0.00861441
17 2 3.68229 7.20266 4.89797 0.00631611 -0.178022 -0.188759
18 2 1.92693 5.95933 3.09276 0.0454402 0.0464864 -0.0141013
19 1 3.52749 2.39564 1.80098 0.0415667 0.0383775 0.0563808
20 1 3.52171 6.10492 3.6072 0.0271252 0.140919 0.173369
21 1 5.22414 4.25727 -0.000704203 -0.0288249 0.043974 -0.0489118
22 2 4.19238 4.6598 4.14502 0.0328484 0.010184 0.0256737
23 2 6.14464 5.57302 0.504205 -0.0582937 -0.0995327 -0.0452564
24 2 4.38595 6.77571 2.31223 -0.0333684 0.00416699 0.0502631
25 2 4.21948 3.84568 1.30061 -0.0329093 -0.00652146 -0.00859057
26 2 6.13728 2.95047 4.89797 0.00634172 -0.178054 -0.188799
27 2 4.38193 1.70715 3.09276 0.0454225 0.0464758 -0.0141048
28 1 5.97672 1.85273 3.60719 0.0270366 0.140968 0.173452
29 1 7.67914 0.00508804 -0.000704176 -0.0288604 0.043979 -0.0489142
30 2 6.64737 0.407607 4.14502 0.0328961 0.0101189 0.0257324
31 2 8.59965 1.32083 0.504204 -0.0583135 -0.0995438 -0.0452865
32 2 6.84094 2.52352 2.31223 -0.0331892 0.0041848 0.0501466
33 2 1.23464 22.5818 0.504205 -0.0582937 -0.0995327 -0.0452564
34 2 1.22728 19.9592 4.89797 0.00634172 -0.178054 -0.188799
35 1 1.07249 15.1522 1.80099 0.0416679 0.0383798 0.05632
36 1 1.06672 18.8615 3.60719 0.0270366 0.140968 0.173452
37 1 2.76914 17.0138 -0.000704176 -0.0288604 0.043979 -0.0489142
38 2 1.73737 17.4163 4.14502 0.0328961 0.0101189 0.0257324
39 2 3.68965 18.3296 0.504204 -0.0583135 -0.0995438 -0.0452865
40 2 1.93094 19.5323 2.31223 -0.0331892 0.0041848 0.0501466
41 2 1.76447 16.6022 1.30061 -0.0329019 -0.00654075 -0.00861441
42 2 3.68229 15.707 4.89797 0.00631611 -0.178022 -0.188759
43 2 1.92693 14.4637 3.09276 0.0454402 0.0464864 -0.0141013
44 1 3.52749 10.9 1.80098 0.0415667 0.0383775 0.0563808
45 1 3.52171 14.6093 3.6072 0.0271252 0.140919 0.173369
46 1 5.22414 12.7616 -0.000704203 -0.0288249 0.043974 -0.0489118
47 2 4.19238 13.1642 4.14502 0.0328484 0.010184 0.0256737
48 2 6.14464 14.0774 0.504205 -0.0582937 -0.0995327 -0.0452564
49 2 4.38595 15.2801 2.31223 -0.0333684 0.00416699 0.0502631
50 2 4.21948 12.35 1.30061 -0.0329093 -0.00652146 -0.00859057
51 2 6.13728 11.4548 4.89797 0.00634172 -0.178054 -0.188799
52 2 4.38193 10.2115 3.09276 0.0454225 0.0464758 -0.0141048
53 1 5.98249 6.64783 1.80099 0.0416679 0.0383798 0.05632
54 1 5.97672 10.3571 3.60719 0.0270366 0.140968 0.173452
55 1 7.67914 8.50946 -0.000704176 -0.0288604 0.043979 -0.0489142
56 2 6.64737 8.91198 4.14502 0.0328961 0.0101189 0.0257324
57 2 8.59965 9.8252 0.504204 -0.0583135 -0.0995438 -0.0452865
58 2 6.84094 11.0279 2.31223 -0.0331892 0.0041848 0.0501466
59 2 6.67447 8.09787 1.30061 -0.0329019 -0.00654075 -0.00861441
60 2 8.59229 7.20266 4.89797 0.00631611 -0.178022 -0.188759
61 2 6.83693 5.95933 3.09276 0.0454402 0.0464864 -0.0141013
62 1 8.43749 2.39564 1.80098 0.0415667 0.0383775 0.0563808
63 1 8.43171 6.10492 3.6072 0.0271252 0.140919 0.173369
64 1 10.1341 4.25727 -0.000704203 -0.0288249 0.043974 -0.0489118
65 2 9.10238 4.6598 4.14502 0.0328484 0.010184 0.0256737
66 2 9.29595 6.77571 2.31223 -0.0333684 0.00416699 0.0502631
67 2 9.12948 3.84568 1.30061 -0.0329093 -0.00652146 -0.00859057
68 2 9.29193 1.70715 3.09276 0.0454225 0.0464758 -0.0141048
69 1 1.07249 23.6566 1.80099 0.0416679 0.0383798 0.05632
70 2 1.76447 25.1066 1.30061 -0.0329019 -0.00654075 -0.00861441
71 2 3.68229 24.2114 4.89797 0.00631611 -0.178022 -0.188759
72 2 1.92693 22.9681 3.09276 0.0454402 0.0464864 -0.0141013
73 1 3.52749 19.4044 1.80098 0.0415667 0.0383775 0.0563808
74 1 3.52171 23.1137 3.6072 0.0271252 0.140919 0.173369
75 1 5.22414 21.266 -0.000704203 -0.0288249 0.043974 -0.0489118
76 2 4.19238 21.6685 4.14502 0.0328484 0.010184 0.0256737
77 2 6.14464 22.5818 0.504205 -0.0582937 -0.0995327 -0.0452564
78 2 4.38595 23.7844 2.31223 -0.0333684 0.00416699 0.0502631
79 2 4.21948 20.8544 1.30061 -0.0329093 -0.00652146 -0.00859057
80 2 6.13728 19.9592 4.89797 0.00634172 -0.178054 -0.188799
81 2 4.38193 18.7159 3.09276 0.0454225 0.0464758 -0.0141048
82 1 5.98249 15.1522 1.80099 0.0416679 0.0383798 0.05632
83 1 5.97672 18.8615 3.60719 0.0270366 0.140968 0.173452
84 1 7.67914 17.0138 -0.000704176 -0.0288604 0.043979 -0.0489142
85 2 6.64737 17.4163 4.14502 0.0328961 0.0101189 0.0257324
86 2 8.59965 18.3296 0.504204 -0.0583135 -0.0995438 -0.0452865
87 2 6.84094 19.5323 2.31223 -0.0331892 0.0041848 0.0501466
88 2 6.67447 16.6022 1.30061 -0.0329019 -0.00654075 -0.00861441
89 2 8.59229 15.707 4.89797 0.00631611 -0.178022 -0.188759
90 2 6.83693 14.4637 3.09276 0.0454402 0.0464864 -0.0141013
91 1 8.43749 10.9 1.80098 0.0415667 0.0383775 0.0563808
92 1 8.43171 14.6093 3.6072 0.0271252 0.140919 0.173369
93 1 10.1341 12.7616 -0.000704203 -0.0288249 0.043974 -0.0489118
94 2 9.10238 13.1642 4.14502 0.0328484 0.010184 0.0256737
95 2 9.29595 15.2801 2.31223 -0.0333684 0.00416699 0.0502631